
     Program BANDS v.6.6 starts on 28Nov2020 at 14:26:23 

     This program is part of the open-source Quantum ESPRESSO suite
     for quantum simulation of materials; please cite
         "P. Giannozzi et al., J. Phys.:Condens. Matter 21 395502 (2009);
         "P. Giannozzi et al., J. Phys.:Condens. Matter 29 465901 (2017);
          URL http://www.quantum-espresso.org", 
     in publications or presentations arising from this work. More details at
     http://www.quantum-espresso.org/quote

     Parallel version (MPI & OpenMP), running on       2 processor cores
     Number of MPI processes:                 2
     Threads/MPI process:                     1

     MPI processes distributed on     1 nodes
     R & G space division:  proc/nbgrp/npool/nimage =       2
     Fft bands division:     nmany     =       1

     Reading xml data from directory:

     ../tmp/FeAs2.save/
     file Fe.pbesol-spn-kjpaw_psl.1.0.0.UPF: wavefunction(s)  3P 3D renormalized

     IMPORTANT: XC functional enforced from input :
     Exchange-correlation= PBESOL
                           (   1   4  10   8   0   0   0)
     Any further DFT definition will be discarded
     Please, verify this is what you really want


     Parallelization info
     --------------------
     sticks:   dense  smooth     PW     G-vecs:    dense   smooth      PW
     Min        1754     585    168               122510    23547    3746
     Max        1755     586    169               122511    23548    3747
     Sum        3509    1171    337               245021    47095    7493

     Reading collected, re-writing distributed wavefunctions
     high-symmetry point:  0.0000 0.0000 0.0000   x coordinate   0.0000
     high-symmetry point:  0.5000 0.0000 0.0000   x coordinate   0.5000
     high-symmetry point:  0.5000 0.2886 0.0000   x coordinate   0.7886
     high-symmetry point:  0.0000 0.2886 0.0000   x coordinate   1.2886
     high-symmetry point:  0.0000 0.0000 0.0000   x coordinate   1.5772
     high-symmetry point:  0.0000 0.0000 0.2426   x coordinate   1.8199
     high-symmetry point:  0.5000 0.0000 0.2426   x coordinate   2.3199
     high-symmetry point:  0.5000 0.2886 0.2426   x coordinate   2.6085
     high-symmetry point:  0.0000 0.2886 0.2426   x coordinate   3.1085
     high-symmetry point:  0.0000 0.0000 0.2426   x coordinate   3.3971
     high-symmetry point:  0.0000 0.2886 0.0000   x coordinate   3.7742
     high-symmetry point:  0.0000 0.2886 0.2426   x coordinate   4.0168
     high-symmetry point:  0.5000 0.0000 0.2426   x coordinate   4.5942
     high-symmetry point:  0.5000 0.0000 0.0000   x coordinate   4.8368
     high-symmetry point:  0.5000 0.2886 0.0000   x coordinate   5.1254
     high-symmetry point:  0.5000 0.2886 0.2426   x coordinate   5.3681

     Plottable bands (eV) written to file FeAs2.bands.gnu
     Bands written to file FeAs2.bands

 **************************************************************************

                    xk=(   0.00000,   0.00000,   0.00000  )

     point group D_2h (mmm) 
     there are  8 classes
     the character table:

       E     C2    C2'   C2''  i     s_v   s_v'  s_v''
A_g    1.00  1.00  1.00  1.00  1.00  1.00  1.00  1.00
B_1g   1.00  1.00 -1.00 -1.00  1.00  1.00 -1.00 -1.00
B_2g   1.00 -1.00  1.00 -1.00  1.00 -1.00  1.00 -1.00
B_3g   1.00 -1.00 -1.00  1.00  1.00 -1.00 -1.00  1.00
A_u    1.00  1.00  1.00  1.00 -1.00 -1.00 -1.00 -1.00
B_1u   1.00  1.00 -1.00 -1.00 -1.00 -1.00  1.00  1.00
B_2u   1.00 -1.00  1.00 -1.00 -1.00  1.00 -1.00  1.00
B_3u   1.00 -1.00 -1.00  1.00 -1.00  1.00  1.00 -1.00

     the symmetry operations in each class and the name of the first element:

     E        1
                                                                 
     C2       2
                                                                 
     C2'      4
                                                                 
     C2''     3
                                                                 
     i        5
                                                                 
     s_v      6
                                                                 
     s_v'     8
                                                                 
     s_v''    7
                                                                 

     Band symmetry, D_2h (mmm)  point group:

     e(  1 -  1) =    -77.52121  eV     1   --> A_g            
     e(  2 -  2) =    -77.52095  eV     1   --> B_2g           
     e(  3 -  4) =    -43.91495  eV     2   --> A_u            
     e(  3 -  4) =    -43.91495  eV     2   --> B_2u           
     e(  5 -  6) =    -43.78974  eV     2   --> B_1u           
     e(  5 -  6) =    -43.78974  eV     2   --> B_3u           
     e(  7 -  7) =    -43.46297  eV     1   --> B_3u           
     e(  8 -  8) =    -43.46286  eV     1   --> B_1u           
     e(  9 -  9) =     -4.57156  eV     1   --> A_g            
     e( 10 - 10) =     -2.88193  eV     1   --> B_2g           
     e( 11 - 11) =     -1.45877  eV     1   --> B_3u           
     e( 12 - 12) =     -0.88380  eV     1   --> B_1u           
     e( 13 - 13) =      3.50644  eV     1   --> B_2g           
     e( 14 - 14) =      4.51340  eV     1   --> B_2g           
     e( 15 - 15) =      5.23956  eV     1   --> A_g            
     e( 16 - 16) =      5.27621  eV     1   --> B_3u           
     e( 17 - 17) =      6.02466  eV     1   --> B_1u           
     e( 18 - 18) =      6.36058  eV     1   --> A_g            
     e( 19 - 19) =      7.42141  eV     1   --> B_2g           
     e( 20 - 20) =      7.59699  eV     1   --> B_3g           
     e( 21 - 21) =      7.60959  eV     1   --> B_1g           
     e( 22 - 22) =      7.69071  eV     1   --> A_g            
     e( 23 - 23) =      8.31935  eV     1   --> A_g            
     e( 24 - 24) =      8.43136  eV     1   --> B_2g           
     e( 25 - 25) =      8.46230  eV     1   --> B_3g           
     e( 26 - 26) =      8.53310  eV     1   --> B_1g           
     e( 27 - 27) =      9.82376  eV     1   --> B_2g           
     e( 28 - 28) =      9.93913  eV     1   --> A_u            
     e( 29 - 29) =     11.52648  eV     1   --> B_2u           
     e( 30 - 30) =     12.24694  eV     1   --> A_g            

 **************************************************************************

 **************************************************************************

                    xk=(   0.02500,   0.00000,   0.00000  )

     point group C_2v (mm2) 
     there are  4 classes
     the character table:

       E     C2    s_v   s_v' 
A_1    1.00  1.00  1.00  1.00
A_2    1.00  1.00 -1.00 -1.00
B_1    1.00 -1.00  1.00 -1.00
B_2    1.00 -1.00 -1.00  1.00

     the symmetry operations in each class and the name of the first element:

     E        1
                                                                 
     C2       2
                                                                 
     s_v      4
                                                                 
     s_v'     3
                                                                 

     Band symmetry, C_2v (mm2)  point group:

     e(  1 -  1) =    -77.52121  eV     1   --> A_1  D_1  S_1  
     e(  2 -  2) =    -77.52105  eV     1   --> A_2  D_2  S_2  
     e(  3 -  4) =    -43.91508  eV     2   --> A_1  D_1  S_1  
     e(  3 -  4) =    -43.91508  eV     2   --> A_2  D_2  S_2  
     e(  5 -  6) =    -43.78977  eV     2   --> B_1  D_3  S_3  
     e(  5 -  6) =    -43.78977  eV     2   --> B_2  D_4  S_4  
     e(  7 -  7) =    -43.46306  eV     1   --> B_2  D_4  S_4  
     e(  8 -  8) =    -43.46286  eV     1   --> B_1  D_3  S_3  
     e(  9 -  9) =     -4.56374  eV     1   --> A_1  D_1  S_1  
     e( 10 - 10) =     -2.87581  eV     1   --> A_2  D_2  S_2  
     e( 11 - 11) =     -1.45206  eV     1   --> B_2  D_4  S_4  
     e( 12 - 12) =     -0.87787  eV     1   --> B_1  D_3  S_3  
     e( 13 - 13) =      3.51566  eV     1   --> A_2  D_2  S_2  
     e( 14 - 14) =      4.52026  eV     1   --> A_2  D_2  S_2  
     e( 15 - 15) =      5.24616  eV     1   --> A_1  D_1  S_1  
     e( 16 - 16) =      5.27770  eV     1   --> B_2  D_4  S_4  
     e( 17 - 17) =      6.02711  eV     1   --> B_1  D_3  S_3  
     e( 18 - 18) =      6.36411  eV     1   --> A_1  D_1  S_1  
     e( 19 - 19) =      7.41298  eV     1   --> A_2  D_2  S_2  
     e( 20 - 20) =      7.59600  eV     1   --> B_1  D_3  S_3  
     e( 21 - 21) =      7.61084  eV     1   --> B_2  D_4  S_4  
     e( 22 - 22) =      7.68809  eV     1   --> A_1  D_1  S_1  
     e( 23 - 23) =      8.31858  eV     1   --> A_1  D_1  S_1  
     e( 24 - 24) =      8.42668  eV     1   --> A_2  D_2  S_2  
     e( 25 - 25) =      8.45530  eV     1   --> B_1  D_3  S_3  
     e( 26 - 26) =      8.52960  eV     1   --> B_2  D_4  S_4  
     e( 27 - 27) =      9.77561  eV     1   --> A_2  D_2  S_2  
     e( 28 - 28) =      9.93399  eV     1   --> A_2  D_2  S_2  
     e( 29 - 29) =     11.45716  eV     1   --> A_1  D_1  S_1  
     e( 30 - 30) =     12.25464  eV     1   --> A_1  D_1  S_1  

 **************************************************************************

 **************************************************************************

                    xk=(   0.05000,   0.00000,   0.00000  )

     Band symmetry, C_2v (mm2)  point group:

     e(  1 -  2) =    -77.52118  eV     2   --> A_1  D_1  S_1  
     e(  1 -  2) =    -77.52118  eV     2   --> A_2  D_2  S_2  
     e(  3 -  3) =    -43.91557  eV     1   --> A_2  D_2  S_2  
     e(  4 -  4) =    -43.91540  eV     1   --> A_1  D_1  S_1  
     e(  5 -  6) =    -43.78974  eV     2   --> B_1  D_3  S_3  
     e(  5 -  6) =    -43.78974  eV     2   --> B_2  D_4  S_4  
     e(  7 -  7) =    -43.46304  eV     1   --> B_2  D_4  S_4  
     e(  8 -  8) =    -43.46283  eV     1   --> B_1  D_3  S_3  
     e(  9 -  9) =     -4.54031  eV     1   --> A_1  D_1  S_1  
     e( 10 - 10) =     -2.85755  eV     1   --> A_2  D_2  S_2  
     e( 11 - 11) =     -1.43196  eV     1   --> B_2  D_4  S_4  
     e( 12 - 12) =     -0.86012  eV     1   --> B_1  D_3  S_3  
     e( 13 - 13) =      3.54339  eV     1   --> A_2  D_2  S_2  
     e( 14 - 14) =      4.54079  eV     1   --> A_2  D_2  S_2  
     e( 15 - 15) =      5.26581  eV     1   --> A_1  D_1  S_1  
     e( 16 - 16) =      5.28202  eV     1   --> B_2  D_4  S_4  
     e( 17 - 17) =      6.03435  eV     1   --> B_1  D_3  S_3  
     e( 18 - 18) =      6.37461  eV     1   --> A_1  D_1  S_1  
     e( 19 - 19) =      7.38518  eV     1   --> A_2  D_2  S_2  
     e( 20 - 20) =      7.59266  eV     1   --> B_1  D_3  S_3  
     e( 21 - 21) =      7.61468  eV     1   --> B_2  D_4  S_4  
     e( 22 - 22) =      7.67954  eV     1   --> A_1  D_1  S_1  
     e( 23 - 23) =      8.31628  eV     1   --> A_1  D_1  S_1  
     e( 24 - 24) =      8.41181  eV     1   --> A_2  D_2  S_2  
     e( 25 - 25) =      8.43456  eV     1   --> B_1  D_3  S_3  
     e( 26 - 26) =      8.51916  eV     1   --> B_2  D_4  S_4  
     e( 27 - 27) =      9.63634  eV     1   --> A_2  D_2  S_2  
     e( 28 - 28) =      9.92790  eV     1   --> A_2  D_2  S_2  
     e( 29 - 29) =     11.26794  eV     1   --> A_1  D_1  S_1  
     e( 30 - 30) =     12.26939  eV     1   --> A_1  D_1  S_1  

 **************************************************************************

 **************************************************************************

                    xk=(   0.07500,   0.00000,   0.00000  )

     Band symmetry, C_2v (mm2)  point group:

     e(  1 -  1) =    -77.52117  eV     1   --> A_1  D_1  S_1  
     e(  2 -  2) =    -77.52102  eV     1   --> A_2  D_2  S_2  
     e(  3 -  4) =    -43.91610  eV     2   --> A_1  D_1  S_1  
     e(  3 -  4) =    -43.91610  eV     2   --> A_2  D_2  S_2  
     e(  5 -  6) =    -43.78969  eV     2   --> B_1  D_3  S_3  
     e(  5 -  6) =    -43.78969  eV     2   --> B_2  D_4  S_4  
     e(  7 -  7) =    -43.46298  eV     1   --> B_2  D_4  S_4  
     e(  8 -  8) =    -43.46282  eV     1   --> B_1  D_3  S_3  
     e(  9 -  9) =     -4.50139  eV     1   --> A_1  D_1  S_1  
     e( 10 - 10) =     -2.82741  eV     1   --> A_2  D_2  S_2  
     e( 11 - 11) =     -1.39862  eV     1   --> B_2  D_4  S_4  
     e( 12 - 12) =     -0.83075  eV     1   --> B_1  D_3  S_3  
     e( 13 - 13) =      3.58952  eV     1   --> A_2  D_2  S_2  
     e( 14 - 14) =      4.57474  eV     1   --> A_2  D_2  S_2  
     e( 15 - 15) =      5.28878  eV     1   --> B_2  D_4  S_4  
     e( 16 - 16) =      5.29783  eV     1   --> A_1  D_1  S_1  
     e( 17 - 17) =      6.04612  eV     1   --> B_1  D_3  S_3  
     e( 18 - 18) =      6.39186  eV     1   --> A_1  D_1  S_1  
     e( 19 - 19) =      7.32995  eV     1   --> A_2  D_2  S_2  
     e( 20 - 20) =      7.58579  eV     1   --> B_1  D_3  S_3  
     e( 21 - 21) =      7.62133  eV     1   --> B_2  D_4  S_4  
     e( 22 - 22) =      7.66290  eV     1   --> A_1  D_1  S_1  
     e( 23 - 23) =      8.31237  eV     1   --> A_1  D_1  S_1  
     e( 24 - 24) =      8.38452  eV     1   --> A_2  D_2  S_2  
     e( 25 - 25) =      8.40102  eV     1   --> B_1  D_3  S_3  
     e( 26 - 26) =      8.50198  eV     1   --> B_2  D_4  S_4  
     e( 27 - 27) =      9.44039  eV     1   --> A_2  D_2  S_2  
     e( 28 - 28) =      9.92363  eV     1   --> A_2  D_2  S_2  
     e( 29 - 29) =     10.99578  eV     1   --> A_1  D_1  S_1  
     e( 30 - 30) =     12.27987  eV     1   --> A_1  D_1  S_1  

 **************************************************************************

 **************************************************************************

                    xk=(   0.10000,   0.00000,   0.00000  )

     Band symmetry, C_2v (mm2)  point group:

     e(  1 -  1) =    -77.52108  eV     1   --> A_1  D_1  S_1  
     e(  2 -  2) =    -77.52095  eV     1   --> A_2  D_2  S_2  
     e(  3 -  4) =    -43.91685  eV     2   --> A_1  D_1  S_1  
     e(  3 -  4) =    -43.91685  eV     2   --> A_2  D_2  S_2  
     e(  5 -  6) =    -43.78961  eV     2   --> B_1  D_3  S_3  
     e(  5 -  6) =    -43.78961  eV     2   --> B_2  D_4  S_4  
     e(  7 -  7) =    -43.46290  eV     1   --> B_2  D_4  S_4  
     e(  8 -  8) =    -43.46276  eV     1   --> B_1  D_3  S_3  
     e(  9 -  9) =     -4.44714  eV     1   --> A_1  D_1  S_1  
     e( 10 - 10) =     -2.78583  eV     1   --> A_2  D_2  S_2  
     e( 11 - 11) =     -1.35228  eV     1   --> B_2  D_4  S_4  
     e( 12 - 12) =     -0.79008  eV     1   --> B_1  D_3  S_3  
     e( 13 - 13) =      3.65377  eV     1   --> A_2  D_2  S_2  
     e( 14 - 14) =      4.62161  eV     1   --> A_2  D_2  S_2  
     e( 15 - 15) =      5.29734  eV     1   --> B_2  D_4  S_4  
     e( 16 - 16) =      5.34120  eV     1   --> A_1  D_1  S_1  
     e( 17 - 17) =      6.06199  eV     1   --> B_1  D_3  S_3  
     e( 18 - 18) =      6.41549  eV     1   --> A_1  D_1  S_1  
     e( 19 - 19) =      7.23313  eV     1   --> A_2  D_2  S_2  
     e( 20 - 20) =      7.57302  eV     1   --> B_1  D_3  S_3  
     e( 21 - 21) =      7.63113  eV     1   --> B_2  D_4  S_4  
     e( 22 - 22) =      7.63426  eV     1   --> A_1  D_1  S_1  
     e( 23 - 23) =      8.30682  eV     1   --> A_1  D_1  S_1  
     e( 24 - 24) =      8.34295  eV     1   --> A_2  D_2  S_2  
     e( 25 - 25) =      8.35652  eV     1   --> B_1  D_3  S_3  
     e( 26 - 26) =      8.47828  eV     1   --> B_2  D_4  S_4  
     e( 27 - 27) =      9.23600  eV     1   --> A_2  D_2  S_2  
     e( 28 - 28) =      9.91961  eV     1   --> A_2  D_2  S_2  
     e( 29 - 29) =     10.67610  eV     1   --> A_1  D_1  S_1  
     e( 30 - 30) =     12.13572  eV     1   --> B_1  D_3  S_3  

 **************************************************************************

 **************************************************************************

                    xk=(   0.12500,   0.00000,   0.00000  )

     Band symmetry, C_2v (mm2)  point group:

     e(  1 -  2) =    -77.52098  eV     2   --> A_1  D_1  S_1  
     e(  1 -  2) =    -77.52098  eV     2   --> A_2  D_2  S_2  
     e(  3 -  3) =    -43.91790  eV     1   --> A_2  D_2  S_2  
     e(  4 -  4) =    -43.91773  eV     1   --> A_1  D_1  S_1  
     e(  5 -  6) =    -43.78950  eV     2   --> B_1  D_3  S_3  
     e(  5 -  6) =    -43.78950  eV     2   --> B_2  D_4  S_4  
     e(  7 -  7) =    -43.46279  eV     1   --> B_2  D_4  S_4  
     e(  8 -  8) =    -43.46268  eV     1   --> B_1  D_3  S_3  
     e(  9 -  9) =     -4.37783  eV     1   --> A_1  D_1  S_1  
     e( 10 - 10) =     -2.73349  eV     1   --> A_2  D_2  S_2  
     e( 11 - 11) =     -1.29328  eV     1   --> B_2  D_4  S_4  
     e( 12 - 12) =     -0.73859  eV     1   --> B_1  D_3  S_3  
     e( 13 - 13) =      3.73579  eV     1   --> A_2  D_2  S_2  
     e( 14 - 14) =      4.68056  eV     1   --> A_2  D_2  S_2  
     e( 15 - 15) =      5.30681  eV     1   --> B_2  D_4  S_4  
     e( 16 - 16) =      5.39412  eV     1   --> A_1  D_1  S_1  
     e( 17 - 17) =      6.08142  eV     1   --> B_1  D_3  S_3  
     e( 18 - 18) =      6.44496  eV     1   --> A_1  D_1  S_1  
     e( 19 - 19) =      7.07747  eV     1   --> A_2  D_2  S_2  
     e( 20 - 20) =      7.55023  eV     1   --> B_1  D_3  S_3  
     e( 21 - 21) =      7.58768  eV     1   --> A_1  D_1  S_1  
     e( 22 - 22) =      7.64446  eV     1   --> B_2  D_4  S_4  
     e( 23 - 23) =      8.29033  eV     1   --> A_2  D_2  S_2  
     e( 24 - 24) =      8.29967  eV     1   --> A_1  D_1  S_1  
     e( 25 - 25) =      8.30421  eV     1   --> B_1  D_3  S_3  
     e( 26 - 26) =      8.44822  eV     1   --> B_2  D_4  S_4  
     e( 27 - 27) =      9.06444  eV     1   --> A_2  D_2  S_2  
     e( 28 - 28) =      9.91514  eV     1   --> A_2  D_2  S_2  
     e( 29 - 29) =     10.33946  eV     1   --> A_1  D_1  S_1  
     e( 30 - 30) =     11.85778  eV     1   --> B_1  D_3  S_3  

 **************************************************************************

 **************************************************************************

                    xk=(   0.15000,   0.00000,   0.00000  )

     Band symmetry, C_2v (mm2)  point group:

     e(  1 -  1) =    -77.52095  eV     1   --> A_1  D_1  S_1  
     e(  2 -  2) =    -77.52080  eV     1   --> A_2  D_2  S_2  
     e(  3 -  4) =    -43.91902  eV     2   --> A_1  D_1  S_1  
     e(  3 -  4) =    -43.91902  eV     2   --> A_2  D_2  S_2  
     e(  5 -  6) =    -43.78935  eV     2   --> B_1  D_3  S_3  
     e(  5 -  6) =    -43.78935  eV     2   --> B_2  D_4  S_4  
     e(  7 -  8) =    -43.46267  eV     2   --> B_1  D_3  S_3  
     e(  7 -  8) =    -43.46267  eV     2   --> B_2  D_4  S_4  
     e(  9 -  9) =     -4.29382  eV     1   --> A_1  D_1  S_1  
     e( 10 - 10) =     -2.67129  eV     1   --> A_2  D_2  S_2  
     e( 11 - 11) =     -1.22209  eV     1   --> B_2  D_4  S_4  
     e( 12 - 12) =     -0.67691  eV     1   --> B_1  D_3  S_3  
     e( 13 - 13) =      3.83517  eV     1   --> A_2  D_2  S_2  
     e( 14 - 14) =      4.75022  eV     1   --> A_2  D_2  S_2  
     e( 15 - 15) =      5.31614  eV     1   --> B_2  D_4  S_4  
     e( 16 - 16) =      5.45382  eV     1   --> A_1  D_1  S_1  
     e( 17 - 17) =      6.10377  eV     1   --> B_1  D_3  S_3  
     e( 18 - 18) =      6.47958  eV     1   --> A_1  D_1  S_1  
     e( 19 - 19) =      6.85338  eV     1   --> A_2  D_2  S_2  
     e( 20 - 20) =      7.51091  eV     1   --> B_1  D_3  S_3  
     e( 21 - 21) =      7.51530  eV     1   --> A_1  D_1  S_1  
     e( 22 - 22) =      7.66161  eV     1   --> B_2  D_4  S_4  
     e( 23 - 23) =      8.23874  eV     1   --> A_2  D_2  S_2  
     e( 24 - 24) =      8.24917  eV     1   --> B_1  D_3  S_3  
     e( 25 - 25) =      8.29117  eV     1   --> A_1  D_1  S_1  
     e( 26 - 26) =      8.41166  eV     1   --> B_2  D_4  S_4  
     e( 27 - 27) =      8.94415  eV     1   --> A_2  D_2  S_2  
     e( 28 - 28) =      9.90994  eV     1   --> A_2  D_2  S_2  
     e( 29 - 29) =     10.01245  eV     1   --> A_1  D_1  S_1  
     e( 30 - 30) =     11.54726  eV     1   --> B_1  D_3  S_3  

 **************************************************************************

 **************************************************************************

                    xk=(   0.17500,   0.00000,   0.00000  )

     Band symmetry, C_2v (mm2)  point group:

     e(  1 -  1) =    -77.52080  eV     1   --> A_1  D_1  S_1  
     e(  2 -  2) =    -77.52068  eV     1   --> A_2  D_2  S_2  
     e(  3 -  4) =    -43.92024  eV     2   --> A_1  D_1  S_1  
     e(  3 -  4) =    -43.92024  eV     2   --> A_2  D_2  S_2  
     e(  5 -  5) =    -43.78919  eV     1   --> B_1  D_3  S_3  
     e(  6 -  6) =    -43.78906  eV     1   --> B_2  D_4  S_4  
     e(  7 -  8) =    -43.46253  eV     2   --> B_1  D_3  S_3  
     e(  7 -  8) =    -43.46253  eV     2   --> B_2  D_4  S_4  
     e(  9 -  9) =     -4.19553  eV     1   --> A_1  D_1  S_1  
     e( 10 - 10) =     -2.60042  eV     1   --> A_2  D_2  S_2  
     e( 11 - 11) =     -1.13933  eV     1   --> B_2  D_4  S_4  
     e( 12 - 12) =     -0.60587  eV     1   --> B_1  D_3  S_3  
     e( 13 - 13) =      3.95134  eV     1   --> A_2  D_2  S_2  
     e( 14 - 14) =      4.82797  eV     1   --> A_2  D_2  S_2  
     e( 15 - 15) =      5.32418  eV     1   --> B_2  D_4  S_4  
     e( 16 - 16) =      5.51606  eV     1   --> A_1  D_1  S_1  
     e( 17 - 17) =      6.12843  eV     1   --> B_1  D_3  S_3  
     e( 18 - 18) =      6.51846  eV     1   --> A_1  D_1  S_1  
     e( 19 - 19) =      6.56991  eV     1   --> A_2  D_2  S_2  
     e( 20 - 20) =      7.40908  eV     1   --> A_1  D_1  S_1  
     e( 21 - 21) =      7.44647  eV     1   --> B_1  D_3  S_3  
     e( 22 - 22) =      7.68266  eV     1   --> B_2  D_4  S_4  
     e( 23 - 23) =      8.19821  eV     1   --> B_1  D_3  S_3  
     e( 24 - 24) =      8.20148  eV     1   --> A_2  D_2  S_2  
     e( 25 - 25) =      8.28174  eV     1   --> A_1  D_1  S_1  
     e( 26 - 26) =      8.36798  eV     1   --> B_2  D_4  S_4  
     e( 27 - 27) =      8.86919  eV     1   --> A_2  D_2  S_2  
     e( 28 - 28) =      9.71792  eV     1   --> A_1  D_1  S_1  
     e( 29 - 29) =      9.90392  eV     1   --> A_2  D_2  S_2  
     e( 30 - 30) =     11.24197  eV     1   --> B_1  D_3  S_3  

 **************************************************************************

 **************************************************************************

                    xk=(   0.20000,   0.00000,   0.00000  )

     Band symmetry, C_2v (mm2)  point group:

     e(  1 -  1) =    -77.52075  eV     1   --> A_1  D_1  S_1  
     e(  2 -  2) =    -77.52061  eV     1   --> A_2  D_2  S_2  
     e(  3 -  3) =    -43.92177  eV     1   --> A_1  D_1  S_1  
     e(  4 -  4) =    -43.92165  eV     1   --> A_2  D_2  S_2  
     e(  5 -  5) =    -43.78907  eV     1   --> B_1  D_3  S_3  
     e(  6 -  6) =    -43.78888  eV     1   --> B_2  D_4  S_4  
     e(  7 -  8) =    -43.46242  eV     2   --> B_1  D_3  S_3  
     e(  7 -  8) =    -43.46242  eV     2   --> B_2  D_4  S_4  
     e(  9 -  9) =     -4.08357  eV     1   --> A_1  D_1  S_1  
     e( 10 - 10) =     -2.52246  eV     1   --> A_2  D_2  S_2  
     e( 11 - 11) =     -1.04578  eV     1   --> B_2  D_4  S_4  
     e( 12 - 12) =     -0.52654  eV     1   --> B_1  D_3  S_3  
     e( 13 - 13) =      4.08352  eV     1   --> A_2  D_2  S_2  
     e( 14 - 14) =      4.90828  eV     1   --> A_2  D_2  S_2  
     e( 15 - 15) =      5.32971  eV     1   --> B_2  D_4  S_4  
     e( 16 - 16) =      5.57368  eV     1   --> A_1  D_1  S_1  
     e( 17 - 17) =      6.15484  eV     1   --> B_1  D_3  S_3  
     e( 18 - 18) =      6.25236  eV     1   --> A_2  D_2  S_2  
     e( 19 - 19) =      6.56033  eV     1   --> A_1  D_1  S_1  
     e( 20 - 20) =      7.26552  eV     1   --> A_1  D_1  S_1  
     e( 21 - 21) =      7.34856  eV     1   --> B_1  D_3  S_3  
     e( 22 - 22) =      7.70726  eV     1   --> B_2  D_4  S_4  
     e( 23 - 23) =      8.15795  eV     1   --> B_1  D_3  S_3  
     e( 24 - 24) =      8.18329  eV     1   --> A_2  D_2  S_2  
     e( 25 - 25) =      8.27178  eV     1   --> A_1  D_1  S_1  
     e( 26 - 26) =      8.31572  eV     1   --> B_2  D_4  S_4  
     e( 27 - 27) =      8.82473  eV     1   --> A_2  D_2  S_2  
     e( 28 - 28) =      9.47298  eV     1   --> A_1  D_1  S_1  
     e( 29 - 29) =      9.89703  eV     1   --> A_2  D_2  S_2  
     e( 30 - 30) =     10.96373  eV     1   --> B_1  D_3  S_3  

 **************************************************************************

 **************************************************************************

                    xk=(   0.22500,   0.00000,   0.00000  )

     Band symmetry, C_2v (mm2)  point group:

     e(  1 -  1) =    -77.52063  eV     1   --> A_1  D_1  S_1  
     e(  2 -  2) =    -77.52053  eV     1   --> A_2  D_2  S_2  
     e(  3 -  4) =    -43.92322  eV     2   --> A_1  D_1  S_1  
     e(  3 -  4) =    -43.92322  eV     2   --> A_2  D_2  S_2  
     e(  5 -  5) =    -43.78890  eV     1   --> B_1  D_3  S_3  
     e(  6 -  6) =    -43.78874  eV     1   --> B_2  D_4  S_4  
     e(  7 -  8) =    -43.46230  eV     2   --> B_1  D_3  S_3  
     e(  7 -  8) =    -43.46230  eV     2   --> B_2  D_4  S_4  
     e(  9 -  9) =     -3.95865  eV     1   --> A_1  D_1  S_1  
     e( 10 - 10) =     -2.43936  eV     1   --> A_2  D_2  S_2  
     e( 11 - 11) =     -0.94244  eV     1   --> B_2  D_4  S_4  
     e( 12 - 12) =     -0.44024  eV     1   --> B_1  D_3  S_3  
     e( 13 - 13) =      4.23084  eV     1   --> A_2  D_2  S_2  
     e( 14 - 14) =      4.97681  eV     1   --> A_2  D_2  S_2  
     e( 15 - 15) =      5.33161  eV     1   --> B_2  D_4  S_4  
     e( 16 - 16) =      5.61479  eV     1   --> A_1  D_1  S_1  
     e( 17 - 17) =      5.93651  eV     1   --> A_2  D_2  S_2  
     e( 18 - 18) =      6.18258  eV     1   --> B_1  D_3  S_3  
     e( 19 - 19) =      6.60328  eV     1   --> A_1  D_1  S_1  
     e( 20 - 20) =      7.09321  eV     1   --> A_1  D_1  S_1  
     e( 21 - 21) =      7.21306  eV     1   --> B_1  D_3  S_3  
     e( 22 - 22) =      7.73441  eV     1   --> B_2  D_4  S_4  
     e( 23 - 23) =      8.13159  eV     1   --> B_1  D_3  S_3  
     e( 24 - 24) =      8.18184  eV     1   --> A_2  D_2  S_2  
     e( 25 - 25) =      8.25240  eV     1   --> B_2  D_4  S_4  
     e( 26 - 26) =      8.26144  eV     1   --> A_1  D_1  S_1  
     e( 27 - 27) =      8.79873  eV     1   --> A_2  D_2  S_2  
     e( 28 - 28) =      9.28546  eV     1   --> A_1  D_1  S_1  
     e( 29 - 29) =      9.88933  eV     1   --> A_2  D_2  S_2  
     e( 30 - 30) =     10.72591  eV     1   --> B_1  D_3  S_3  

 **************************************************************************

 **************************************************************************

                    xk=(   0.25000,   0.00000,   0.00000  )

     Band symmetry, C_2v (mm2)  point group:

     e(  1 -  1) =    -77.52058  eV     1   --> A_1  D_1  S_1  
     e(  2 -  2) =    -77.52047  eV     1   --> A_2  D_2  S_2  
     e(  3 -  4) =    -43.92480  eV     2   --> A_1  D_1  S_1  
     e(  3 -  4) =    -43.92480  eV     2   --> A_2  D_2  S_2  
     e(  5 -  5) =    -43.78875  eV     1   --> B_1  D_3  S_3  
     e(  6 -  6) =    -43.78861  eV     1   --> B_2  D_4  S_4  
     e(  7 -  8) =    -43.46222  eV     2   --> B_1  D_3  S_3  
     e(  7 -  8) =    -43.46222  eV     2   --> B_2  D_4  S_4  
     e(  9 -  9) =     -3.82169  eV     1   --> A_1  D_1  S_1  
     e( 10 - 10) =     -2.35361  eV     1   --> A_2  D_2  S_2  
     e( 11 - 11) =     -0.83053  eV     1   --> B_2  D_4  S_4  
     e( 12 - 12) =     -0.34863  eV     1   --> B_1  D_3  S_3  
     e( 13 - 13) =      4.39207  eV     1   --> A_2  D_2  S_2  
     e( 14 - 14) =      4.99008  eV     1   --> A_2  D_2  S_2  
     e( 15 - 15) =      5.32892  eV     1   --> B_2  D_4  S_4  
     e( 16 - 16) =      5.61926  eV     1   --> A_1  D_1  S_1  
     e( 17 - 17) =      5.68297  eV     1   --> A_2  D_2  S_2  
     e( 18 - 18) =      6.21140  eV     1   --> B_1  D_3  S_3  
     e( 19 - 19) =      6.64267  eV     1   --> A_1  D_1  S_1  
     e( 20 - 20) =      6.92007  eV     1   --> A_1  D_1  S_1  
     e( 21 - 21) =      7.04217  eV     1   --> B_1  D_3  S_3  
     e( 22 - 22) =      7.76195  eV     1   --> B_2  D_4  S_4  
     e( 23 - 23) =      8.11759  eV     1   --> B_1  D_3  S_3  
     e( 24 - 24) =      8.17483  eV     1   --> B_2  D_4  S_4  
     e( 25 - 25) =      8.19280  eV     1   --> A_2  D_2  S_2  
     e( 26 - 26) =      8.25047  eV     1   --> A_1  D_1  S_1  
     e( 27 - 27) =      8.78375  eV     1   --> A_2  D_2  S_2  
     e( 28 - 28) =      9.15256  eV     1   --> A_1  D_1  S_1  
     e( 29 - 29) =      9.88091  eV     1   --> A_2  D_2  S_2  
     e( 30 - 30) =     10.45006  eV     1   --> B_2  D_4  S_4  

 **************************************************************************

 **************************************************************************

                    xk=(   0.27500,   0.00000,   0.00000  )

     Band symmetry, C_2v (mm2)  point group:

     e(  1 -  2) =    -77.52047  eV     2   --> A_1  D_1  S_1  
     e(  1 -  2) =    -77.52047  eV     2   --> A_2  D_2  S_2  
     e(  3 -  4) =    -43.92633  eV     2   --> A_1  D_1  S_1  
     e(  3 -  4) =    -43.92633  eV     2   --> A_2  D_2  S_2  
     e(  5 -  5) =    -43.78860  eV     1   --> B_1  D_3  S_3  
     e(  6 -  6) =    -43.78845  eV     1   --> B_2  D_4  S_4  
     e(  7 -  8) =    -43.46211  eV     2   --> B_1  D_3  S_3  
     e(  7 -  8) =    -43.46211  eV     2   --> B_2  D_4  S_4  
     e(  9 -  9) =     -3.67380  eV     1   --> A_1  D_1  S_1  
     e( 10 - 10) =     -2.26830  eV     1   --> A_2  D_2  S_2  
     e( 11 - 11) =     -0.71157  eV     1   --> B_2  D_4  S_4  
     e( 12 - 12) =     -0.25372  eV     1   --> B_1  D_3  S_3  
     e( 13 - 13) =      4.56511  eV     1   --> A_2  D_2  S_2  
     e( 14 - 14) =      4.86780  eV     1   --> A_2  D_2  S_2  
     e( 15 - 15) =      5.32102  eV     1   --> B_2  D_4  S_4  
     e( 16 - 16) =      5.55944  eV     1   --> A_1  D_1  S_1  
     e( 17 - 17) =      5.58531  eV     1   --> A_2  D_2  S_2  
     e( 18 - 18) =      6.24123  eV     1   --> B_1  D_3  S_3  
     e( 19 - 19) =      6.65944  eV     1   --> A_1  D_1  S_1  
     e( 20 - 20) =      6.80134  eV     1   --> A_1  D_1  S_1  
     e( 21 - 21) =      6.84317  eV     1   --> B_1  D_3  S_3  
     e( 22 - 22) =      7.78499  eV     1   --> B_2  D_4  S_4  
     e( 23 - 23) =      8.08152  eV     1   --> B_2  D_4  S_4  
     e( 24 - 24) =      8.11156  eV     1   --> B_1  D_3  S_3  
     e( 25 - 25) =      8.21227  eV     1   --> A_2  D_2  S_2  
     e( 26 - 26) =      8.23856  eV     1   --> A_1  D_1  S_1  
     e( 27 - 27) =      8.77552  eV     1   --> A_2  D_2  S_2  
     e( 28 - 28) =      9.06453  eV     1   --> A_1  D_1  S_1  
     e( 29 - 29) =      9.87203  eV     1   --> A_2  D_2  S_2  
     e( 30 - 30) =     10.19733  eV     1   --> B_2  D_4  S_4  

 **************************************************************************

 **************************************************************************

                    xk=(   0.30000,   0.00000,   0.00000  )

     Band symmetry, C_2v (mm2)  point group:

     e(  1 -  2) =    -77.52036  eV     2   --> A_1  D_1  S_1  
     e(  1 -  2) =    -77.52036  eV     2   --> A_2  D_2  S_2  
     e(  3 -  4) =    -43.92782  eV     2   --> A_1  D_1  S_1  
     e(  3 -  4) =    -43.92782  eV     2   --> A_2  D_2  S_2  
     e(  5 -  5) =    -43.78839  eV     1   --> B_1  D_3  S_3  
     e(  6 -  6) =    -43.78827  eV     1   --> B_2  D_4  S_4  
     e(  7 -  8) =    -43.46201  eV     2   --> B_1  D_3  S_3  
     e(  7 -  8) =    -43.46201  eV     2   --> B_2  D_4  S_4  
     e(  9 -  9) =     -3.51640  eV     1   --> A_1  D_1  S_1  
     e( 10 - 10) =     -2.18716  eV     1   --> A_2  D_2  S_2  
     e( 11 - 11) =     -0.58746  eV     1   --> B_2  D_4  S_4  
     e( 12 - 12) =     -0.15795  eV     1   --> B_1  D_3  S_3  
     e( 13 - 13) =      4.62076  eV     1   --> A_2  D_2  S_2  
     e( 14 - 14) =      4.75866  eV     1   --> A_2  D_2  S_2  
     e( 15 - 15) =      5.30771  eV     1   --> B_2  D_4  S_4  
     e( 16 - 16) =      5.41652  eV     1   --> A_1  D_1  S_1  
     e( 17 - 17) =      5.63167  eV     1   --> A_2  D_2  S_2  
     e( 18 - 18) =      6.27184  eV     1   --> B_1  D_3  S_3  
     e( 19 - 19) =      6.62632  eV     1   --> B_1  D_3  S_3  
     e( 20 - 20) =      6.62823  eV     1   --> A_1  D_1  S_1  
     e( 21 - 21) =      6.78952  eV     1   --> A_1  D_1  S_1  
     e( 22 - 22) =      7.78752  eV     1   --> B_2  D_4  S_4  
     e( 23 - 23) =      7.98351  eV     1   --> B_2  D_4  S_4  
     e( 24 - 24) =      8.10870  eV     1   --> B_1  D_3  S_3  
     e( 25 - 25) =      8.22586  eV     1   --> A_1  D_1  S_1  
     e( 26 - 26) =      8.23718  eV     1   --> A_2  D_2  S_2  
     e( 27 - 27) =      8.77163  eV     1   --> A_2  D_2  S_2  
     e( 28 - 28) =      9.00980  eV     1   --> A_1  D_1  S_1  
     e( 29 - 29) =      9.86308  eV     1   --> A_2  D_2  S_2  
     e( 30 - 30) =     10.01212  eV     1   --> B_2  D_4  S_4  

 **************************************************************************

 **************************************************************************

                    xk=(   0.32500,   0.00000,   0.00000  )

     Band symmetry, C_2v (mm2)  point group:

     e(  1 -  2) =    -77.52027  eV     2   --> A_1  D_1  S_1  
     e(  1 -  2) =    -77.52027  eV     2   --> A_2  D_2  S_2  
     e(  3 -  4) =    -43.92923  eV     2   --> A_1  D_1  S_1  
     e(  3 -  4) =    -43.92923  eV     2   --> A_2  D_2  S_2  
     e(  5 -  5) =    -43.78824  eV     1   --> B_1  D_3  S_3  
     e(  6 -  6) =    -43.78810  eV     1   --> B_2  D_4  S_4  
     e(  7 -  8) =    -43.46188  eV     2   --> B_1  D_3  S_3  
     e(  7 -  8) =    -43.46188  eV     2   --> B_2  D_4  S_4  
     e(  9 -  9) =     -3.35123  eV     1   --> A_1  D_1  S_1  
     e( 10 - 10) =     -2.11464  eV     1   --> A_2  D_2  S_2  
     e( 11 - 11) =     -0.46048  eV     1   --> B_2  D_4  S_4  
     e( 12 - 12) =     -0.06426  eV     1   --> B_1  D_3  S_3  
     e( 13 - 13) =      4.36132  eV     1   --> A_2  D_2  S_2  
     e( 14 - 14) =      4.94905  eV     1   --> A_2  D_2  S_2  
     e( 15 - 15) =      5.20241  eV     1   --> A_1  D_1  S_1  
     e( 16 - 16) =      5.28946  eV     1   --> B_2  D_4  S_4  
     e( 17 - 17) =      5.73858  eV     1   --> A_2  D_2  S_2  
     e( 18 - 18) =      6.29747  eV     1   --> B_1  D_3  S_3  
     e( 19 - 19) =      6.40842  eV     1   --> B_1  D_3  S_3  
     e( 20 - 20) =      6.60690  eV     1   --> A_1  D_1  S_1  
     e( 21 - 21) =      6.81967  eV     1   --> A_1  D_1  S_1  
     e( 22 - 22) =      7.72043  eV     1   --> B_2  D_4  S_4  
     e( 23 - 23) =      7.92966  eV     1   --> B_2  D_4  S_4  
     e( 24 - 24) =      8.10534  eV     1   --> B_1  D_3  S_3  
     e( 25 - 25) =      8.21365  eV     1   --> A_1  D_1  S_1  
     e( 26 - 26) =      8.26501  eV     1   --> A_2  D_2  S_2  
     e( 27 - 27) =      8.77078  eV     1   --> A_2  D_2  S_2  
     e( 28 - 28) =      8.97812  eV     1   --> A_1  D_1  S_1  
     e( 29 - 29) =      9.85475  eV     1   --> A_2  D_2  S_2  
     e( 30 - 30) =      9.89798  eV     1   --> B_2  D_4  S_4  

 **************************************************************************

 **************************************************************************

                    xk=(   0.35000,   0.00000,   0.00000  )

     Band symmetry, C_2v (mm2)  point group:

     e(  1 -  2) =    -77.52020  eV     2   --> A_1  D_1  S_1  
     e(  1 -  2) =    -77.52020  eV     2   --> A_2  D_2  S_2  
     e(  3 -  4) =    -43.93058  eV     2   --> A_1  D_1  S_1  
     e(  3 -  4) =    -43.93058  eV     2   --> A_2  D_2  S_2  
     e(  5 -  5) =    -43.78814  eV     1   --> B_1  D_3  S_3  
     e(  6 -  6) =    -43.78798  eV     1   --> B_2  D_4  S_4  
     e(  7 -  8) =    -43.46179  eV     2   --> B_1  D_3  S_3  
     e(  7 -  8) =    -43.46179  eV     2   --> B_2  D_4  S_4  
     e(  9 -  9) =     -3.18045  eV     1   --> A_1  D_1  S_1  
     e( 10 - 10) =     -2.05574  eV     1   --> A_2  D_2  S_2  
     e( 11 - 11) =     -0.33342  eV     1   --> B_2  D_4  S_4  
     e( 12 - 12) =      0.02395  eV     1   --> B_1  D_3  S_3  
     e( 13 - 13) =      4.11679  eV     1   --> A_2  D_2  S_2  
     e( 14 - 14) =      4.94842  eV     1   --> A_1  D_1  S_1  
     e( 15 - 15) =      5.15000  eV     1   --> A_2  D_2  S_2  
     e( 16 - 16) =      5.26756  eV     1   --> B_2  D_4  S_4  
     e( 17 - 17) =      5.86845  eV     1   --> A_2  D_2  S_2  
     e( 18 - 18) =      6.16501  eV     1   --> B_1  D_3  S_3  
     e( 19 - 19) =      6.35361  eV     1   --> B_1  D_3  S_3  
     e( 20 - 20) =      6.60623  eV     1   --> A_1  D_1  S_1  
     e( 21 - 21) =      6.85042  eV     1   --> A_1  D_1  S_1  
     e( 22 - 22) =      7.58039  eV     1   --> B_2  D_4  S_4  
     e( 23 - 23) =      7.92911  eV     1   --> B_2  D_4  S_4  
     e( 24 - 24) =      8.09933  eV     1   --> B_1  D_3  S_3  
     e( 25 - 25) =      8.20454  eV     1   --> A_1  D_1  S_1  
     e( 26 - 26) =      8.29349  eV     1   --> A_2  D_2  S_2  
     e( 27 - 27) =      8.77258  eV     1   --> A_2  D_2  S_2  
     e( 28 - 28) =      8.96123  eV     1   --> A_1  D_1  S_1  
     e( 29 - 29) =      9.84812  eV     1   --> A_2  D_2  S_2  
     e( 30 - 30) =      9.85113  eV     1   --> B_2  D_4  S_4  

 **************************************************************************

 **************************************************************************

                    xk=(   0.37500,   0.00000,   0.00000  )

     Band symmetry, C_2v (mm2)  point group:

     e(  1 -  2) =    -77.52015  eV     2   --> A_1  D_1  S_1  
     e(  1 -  2) =    -77.52015  eV     2   --> A_2  D_2  S_2  
     e(  3 -  4) =    -43.93176  eV     2   --> A_1  D_1  S_1  
     e(  3 -  4) =    -43.93176  eV     2   --> A_2  D_2  S_2  
     e(  5 -  6) =    -43.78790  eV     2   --> B_1  D_3  S_3  
     e(  5 -  6) =    -43.78790  eV     2   --> B_2  D_4  S_4  
     e(  7 -  8) =    -43.46169  eV     2   --> B_1  D_3  S_3  
     e(  7 -  8) =    -43.46169  eV     2   --> B_2  D_4  S_4  
     e(  9 -  9) =     -3.00674  eV     1   --> A_1  D_1  S_1  
     e( 10 - 10) =     -2.01580  eV     1   --> A_2  D_2  S_2  
     e( 11 - 11) =     -0.20955  eV     1   --> B_2  D_4  S_4  
     e( 12 - 12) =      0.10282  eV     1   --> B_1  D_3  S_3  
     e( 13 - 13) =      3.90933  eV     1   --> A_2  D_2  S_2  
     e( 14 - 14) =      4.68238  eV     1   --> A_1  D_1  S_1  
     e( 15 - 15) =      5.24436  eV     1   --> B_2  D_4  S_4  
     e( 16 - 16) =      5.35511  eV     1   --> A_2  D_2  S_2  
     e( 17 - 17) =      5.95499  eV     1   --> B_1  D_3  S_3  
     e( 18 - 18) =      6.00739  eV     1   --> A_2  D_2  S_2  
     e( 19 - 19) =      6.39176  eV     1   --> B_1  D_3  S_3  
     e( 20 - 20) =      6.60800  eV     1   --> A_1  D_1  S_1  
     e( 21 - 21) =      6.86972  eV     1   --> A_1  D_1  S_1  
     e( 22 - 22) =      7.41669  eV     1   --> B_2  D_4  S_4  
     e( 23 - 23) =      7.94247  eV     1   --> B_2  D_4  S_4  
     e( 24 - 24) =      8.08999  eV     1   --> B_1  D_3  S_3  
     e( 25 - 25) =      8.20217  eV     1   --> A_1  D_1  S_1  
     e( 26 - 26) =      8.32013  eV     1   --> A_2  D_2  S_2  
     e( 27 - 27) =      8.77742  eV     1   --> A_2  D_2  S_2  
     e( 28 - 28) =      8.95258  eV     1   --> A_1  D_1  S_1  
     e( 29 - 29) =      9.84492  eV     1   --> A_2  D_2  S_2  
     e( 30 - 30) =      9.86213  eV     1   --> B_2  D_4  S_4  

 **************************************************************************

 **************************************************************************

                    xk=(   0.40000,   0.00000,   0.00000  )

     Band symmetry, C_2v (mm2)  point group:

     e(  1 -  2) =    -77.52006  eV     2   --> A_1  D_1  S_1  
     e(  1 -  2) =    -77.52006  eV     2   --> A_2  D_2  S_2  
     e(  3 -  4) =    -43.93275  eV     2   --> A_1  D_1  S_1  
     e(  3 -  4) =    -43.93275  eV     2   --> A_2  D_2  S_2  
     e(  5 -  6) =    -43.78777  eV     2   --> B_1  D_3  S_3  
     e(  5 -  6) =    -43.78777  eV     2   --> B_2  D_4  S_4  
     e(  7 -  8) =    -43.46159  eV     2   --> B_1  D_3  S_3  
     e(  7 -  8) =    -43.46159  eV     2   --> B_2  D_4  S_4  
     e(  9 -  9) =     -2.83336  eV     1   --> A_1  D_1  S_1  
     e( 10 - 10) =     -1.99992  eV     1   --> A_2  D_2  S_2  
     e( 11 - 11) =     -0.09264  eV     1   --> B_2  D_4  S_4  
     e( 12 - 12) =      0.16823  eV     1   --> B_1  D_3  S_3  
     e( 13 - 13) =      3.74981  eV     1   --> A_2  D_2  S_2  
     e( 14 - 14) =      4.42337  eV     1   --> A_1  D_1  S_1  
     e( 15 - 15) =      5.22345  eV     1   --> B_2  D_4  S_4  
     e( 16 - 16) =      5.56053  eV     1   --> A_2  D_2  S_2  
     e( 17 - 17) =      5.76109  eV     1   --> B_1  D_3  S_3  
     e( 18 - 18) =      6.14816  eV     1   --> A_2  D_2  S_2  
     e( 19 - 19) =      6.43864  eV     1   --> B_1  D_3  S_3  
     e( 20 - 20) =      6.59766  eV     1   --> A_1  D_1  S_1  
     e( 21 - 21) =      6.86973  eV     1   --> A_1  D_1  S_1  
     e( 22 - 22) =      7.25182  eV     1   --> B_2  D_4  S_4  
     e( 23 - 23) =      7.95765  eV     1   --> B_2  D_4  S_4  
     e( 24 - 24) =      8.07767  eV     1   --> B_1  D_3  S_3  
     e( 25 - 25) =      8.20999  eV     1   --> A_1  D_1  S_1  
     e( 26 - 26) =      8.34194  eV     1   --> A_2  D_2  S_2  
     e( 27 - 27) =      8.78651  eV     1   --> A_2  D_2  S_2  
     e( 28 - 28) =      8.94677  eV     1   --> A_1  D_1  S_1  
     e( 29 - 29) =      9.84776  eV     1   --> A_2  D_2  S_2  
     e( 30 - 30) =      9.91906  eV     1   --> B_2  D_4  S_4  

 **************************************************************************

 **************************************************************************

                    xk=(   0.42500,   0.00000,   0.00000  )

     Band symmetry, C_2v (mm2)  point group:

     e(  1 -  2) =    -77.51995  eV     2   --> A_1  D_1  S_1  
     e(  1 -  2) =    -77.51995  eV     2   --> A_2  D_2  S_2  
     e(  3 -  4) =    -43.93353  eV     2   --> A_1  D_1  S_1  
     e(  3 -  4) =    -43.93353  eV     2   --> A_2  D_2  S_2  
     e(  5 -  6) =    -43.78764  eV     2   --> B_1  D_3  S_3  
     e(  5 -  6) =    -43.78764  eV     2   --> B_2  D_4  S_4  
     e(  7 -  8) =    -43.46147  eV     2   --> B_1  D_3  S_3  
     e(  7 -  8) =    -43.46147  eV     2   --> B_2  D_4  S_4  
     e(  9 -  9) =     -2.66425  eV     1   --> A_1  D_1  S_1  
     e( 10 - 10) =     -2.01224  eV     1   --> A_2  D_2  S_2  
     e( 11 - 11) =      0.01312  eV     1   --> B_2  D_4  S_4  
     e( 12 - 12) =      0.21603  eV     1   --> B_1  D_3  S_3  
     e( 13 - 13) =      3.64517  eV     1   --> A_2  D_2  S_2  
     e( 14 - 14) =      4.18459  eV     1   --> A_1  D_1  S_1  
     e( 15 - 15) =      5.20970  eV     1   --> B_2  D_4  S_4  
     e( 16 - 16) =      5.59204  eV     1   --> B_1  D_3  S_3  
     e( 17 - 17) =      5.76181  eV     1   --> A_2  D_2  S_2  
     e( 18 - 18) =      6.28552  eV     1   --> A_2  D_2  S_2  
     e( 19 - 19) =      6.49369  eV     1   --> B_1  D_3  S_3  
     e( 20 - 20) =      6.56541  eV     1   --> A_1  D_1  S_1  
     e( 21 - 21) =      6.84565  eV     1   --> A_1  D_1  S_1  
     e( 22 - 22) =      7.09635  eV     1   --> B_2  D_4  S_4  
     e( 23 - 23) =      7.97249  eV     1   --> B_2  D_4  S_4  
     e( 24 - 24) =      8.06323  eV     1   --> B_1  D_3  S_3  
     e( 25 - 25) =      8.22933  eV     1   --> A_1  D_1  S_1  
     e( 26 - 26) =      8.35540  eV     1   --> A_2  D_2  S_2  
     e( 27 - 27) =      8.80149  eV     1   --> A_2  D_2  S_2  
     e( 28 - 28) =      8.93928  eV     1   --> A_1  D_1  S_1  
     e( 29 - 29) =      9.86053  eV     1   --> A_2  D_2  S_2  
     e( 30 - 30) =     10.00942  eV     1   --> B_2  D_4  S_4  

 **************************************************************************

 **************************************************************************

                    xk=(   0.45000,   0.00000,   0.00000  )

     Band symmetry, C_2v (mm2)  point group:

     e(  1 -  2) =    -77.51993  eV     2   --> A_1  D_1  S_1  
     e(  1 -  2) =    -77.51993  eV     2   --> A_2  D_2  S_2  
     e(  3 -  4) =    -43.93412  eV     2   --> A_1  D_1  S_1  
     e(  3 -  4) =    -43.93412  eV     2   --> A_2  D_2  S_2  
     e(  5 -  6) =    -43.78758  eV     2   --> B_1  D_3  S_3  
     e(  5 -  6) =    -43.78758  eV     2   --> B_2  D_4  S_4  
     e(  7 -  8) =    -43.46145  eV     2   --> B_1  D_3  S_3  
     e(  7 -  8) =    -43.46145  eV     2   --> B_2  D_4  S_4  
     e(  9 -  9) =     -2.50402  eV     1   --> A_1  D_1  S_1  
     e( 10 - 10) =     -2.05517  eV     1   --> A_2  D_2  S_2  
     e( 11 - 11) =      0.10342  eV     1   --> B_2  D_4  S_4  
     e( 12 - 12) =      0.24252  eV     1   --> B_1  D_3  S_3  
     e( 13 - 13) =      3.59919  eV     1   --> A_2  D_2  S_2  
     e( 14 - 14) =      3.97612  eV     1   --> A_1  D_1  S_1  
     e( 15 - 15) =      5.20902  eV     1   --> B_2  D_4  S_4  
     e( 16 - 16) =      5.45288  eV     1   --> B_1  D_3  S_3  
     e( 17 - 17) =      5.95372  eV     1   --> A_2  D_2  S_2  
     e( 18 - 18) =      6.41518  eV     1   --> A_2  D_2  S_2  
     e( 19 - 19) =      6.50441  eV     1   --> A_1  D_1  S_1  
     e( 20 - 20) =      6.55853  eV     1   --> B_1  D_3  S_3  
     e( 21 - 21) =      6.79701  eV     1   --> A_1  D_1  S_1  
     e( 22 - 22) =      6.95573  eV     1   --> B_2  D_4  S_4  
     e( 23 - 23) =      7.98694  eV     1   --> B_2  D_4  S_4  
     e( 24 - 24) =      8.04769  eV     1   --> B_1  D_3  S_3  
     e( 25 - 25) =      8.25815  eV     1   --> A_1  D_1  S_1  
     e( 26 - 26) =      8.35722  eV     1   --> A_2  D_2  S_2  
     e( 27 - 27) =      8.82335  eV     1   --> A_2  D_2  S_2  
     e( 28 - 28) =      8.92656  eV     1   --> A_1  D_1  S_1  
     e( 29 - 29) =      9.88863  eV     1   --> A_2  D_2  S_2  
     e( 30 - 30) =     10.12027  eV     1   --> B_2  D_4  S_4  

 **************************************************************************

 **************************************************************************

                    xk=(   0.47500,   0.00000,   0.00000  )

     Band symmetry, C_2v (mm2)  point group:

     e(  1 -  2) =    -77.51986  eV     2   --> A_1  D_1  S_1  
     e(  1 -  2) =    -77.51986  eV     2   --> A_2  D_2  S_2  
     e(  3 -  4) =    -43.93442  eV     2   --> A_1  D_1  S_1  
     e(  3 -  4) =    -43.93442  eV     2   --> A_2  D_2  S_2  
     e(  5 -  6) =    -43.78753  eV     2   --> B_1  D_3  S_3  
     e(  5 -  6) =    -43.78753  eV     2   --> B_2  D_4  S_4  
     e(  7 -  8) =    -43.46139  eV     2   --> B_1  D_3  S_3  
     e(  7 -  8) =    -43.46139  eV     2   --> B_2  D_4  S_4  
     e(  9 -  9) =     -2.35781  eV     1   --> A_1  D_1  S_1  
     e( 10 - 10) =     -2.12884  eV     1   --> A_2  D_2  S_2  
     e( 11 - 11) =      0.17417  eV     1   --> B_2  D_4  S_4  
     e( 12 - 12) =      0.24495  eV     1   --> B_1  D_3  S_3  
     e( 13 - 13) =      3.61262  eV     1   --> A_2  D_2  S_2  
     e( 14 - 14) =      3.80652  eV     1   --> A_1  D_1  S_1  
     e( 15 - 15) =      5.22779  eV     1   --> B_2  D_4  S_4  
     e( 16 - 16) =      5.34618  eV     1   --> B_1  D_3  S_3  
     e( 17 - 17) =      6.13022  eV     1   --> A_2  D_2  S_2  
     e( 18 - 18) =      6.41078  eV     1   --> A_1  D_1  S_1  
     e( 19 - 19) =      6.53360  eV     1   --> A_2  D_2  S_2  
     e( 20 - 20) =      6.63519  eV     1   --> B_1  D_3  S_3  
     e( 21 - 21) =      6.72671  eV     1   --> A_1  D_1  S_1  
     e( 22 - 22) =      6.83219  eV     1   --> B_2  D_4  S_4  
     e( 23 - 23) =      8.00147  eV     1   --> B_2  D_4  S_4  
     e( 24 - 24) =      8.03190  eV     1   --> B_1  D_3  S_3  
     e( 25 - 25) =      8.29137  eV     1   --> A_1  D_1  S_1  
     e( 26 - 26) =      8.34587  eV     1   --> A_2  D_2  S_2  
     e( 27 - 27) =      8.85091  eV     1   --> A_2  D_2  S_2  
     e( 28 - 28) =      8.90669  eV     1   --> A_1  D_1  S_1  
     e( 29 - 29) =      9.93899  eV     1   --> A_2  D_2  S_2  
     e( 30 - 30) =     10.13490  eV     1   --> A_1  D_1  S_1  

 **************************************************************************

 **************************************************************************

                    xk=(   0.50000,   0.00000,   0.00000  )

     zone border point and non-symmorphic group 
     symmetry decomposition not available

 **************************************************************************

 **************************************************************************

                    xk=(   0.50000,   0.01443,   0.00000  )

     zone border point and non-symmorphic group 
     symmetry decomposition not available

 **************************************************************************

 **************************************************************************

                    xk=(   0.50000,   0.02886,   0.00000  )

     zone border point and non-symmorphic group 
     symmetry decomposition not available

 **************************************************************************

 **************************************************************************

                    xk=(   0.50000,   0.04329,   0.00000  )

     zone border point and non-symmorphic group 
     symmetry decomposition not available

 **************************************************************************

 **************************************************************************

                    xk=(   0.50000,   0.05772,   0.00000  )

     zone border point and non-symmorphic group 
     symmetry decomposition not available

 **************************************************************************

 **************************************************************************

                    xk=(   0.50000,   0.07216,   0.00000  )

     zone border point and non-symmorphic group 
     symmetry decomposition not available

 **************************************************************************

 **************************************************************************

                    xk=(   0.50000,   0.08659,   0.00000  )

     zone border point and non-symmorphic group 
     symmetry decomposition not available

 **************************************************************************

 **************************************************************************

                    xk=(   0.50000,   0.10102,   0.00000  )

     zone border point and non-symmorphic group 
     symmetry decomposition not available

 **************************************************************************

 **************************************************************************

                    xk=(   0.50000,   0.11545,   0.00000  )

     zone border point and non-symmorphic group 
     symmetry decomposition not available

 **************************************************************************

 **************************************************************************

                    xk=(   0.50000,   0.12988,   0.00000  )

     zone border point and non-symmorphic group 
     symmetry decomposition not available

 **************************************************************************

 **************************************************************************

                    xk=(   0.50000,   0.14431,   0.00000  )

     zone border point and non-symmorphic group 
     symmetry decomposition not available

 **************************************************************************

 **************************************************************************

                    xk=(   0.50000,   0.15874,   0.00000  )

     zone border point and non-symmorphic group 
     symmetry decomposition not available

 **************************************************************************

 **************************************************************************

                    xk=(   0.50000,   0.17317,   0.00000  )

     zone border point and non-symmorphic group 
     symmetry decomposition not available

 **************************************************************************

 **************************************************************************

                    xk=(   0.50000,   0.18760,   0.00000  )

     zone border point and non-symmorphic group 
     symmetry decomposition not available

 **************************************************************************

 **************************************************************************

                    xk=(   0.50000,   0.20203,   0.00000  )

     zone border point and non-symmorphic group 
     symmetry decomposition not available

 **************************************************************************

 **************************************************************************

                    xk=(   0.50000,   0.21647,   0.00000  )

     zone border point and non-symmorphic group 
     symmetry decomposition not available

 **************************************************************************

 **************************************************************************

                    xk=(   0.50000,   0.23090,   0.00000  )

     zone border point and non-symmorphic group 
     symmetry decomposition not available

 **************************************************************************

 **************************************************************************

                    xk=(   0.50000,   0.24533,   0.00000  )

     zone border point and non-symmorphic group 
     symmetry decomposition not available

 **************************************************************************

 **************************************************************************

                    xk=(   0.50000,   0.25976,   0.00000  )

     zone border point and non-symmorphic group 
     symmetry decomposition not available

 **************************************************************************

 **************************************************************************

                    xk=(   0.50000,   0.27419,   0.00000  )

     zone border point and non-symmorphic group 
     symmetry decomposition not available

 **************************************************************************

 **************************************************************************

                    xk=(   0.50000,   0.28862,   0.00000  )

     zone border point and non-symmorphic group 
     symmetry decomposition not available

 **************************************************************************

 **************************************************************************

                    xk=(   0.47500,   0.28862,   0.00000  )

     zone border point and non-symmorphic group 
     symmetry decomposition not available

 **************************************************************************

 **************************************************************************

                    xk=(   0.45000,   0.28862,   0.00000  )

     zone border point and non-symmorphic group 
     symmetry decomposition not available

 **************************************************************************

 **************************************************************************

                    xk=(   0.42500,   0.28862,   0.00000  )

     zone border point and non-symmorphic group 
     symmetry decomposition not available

 **************************************************************************

 **************************************************************************

                    xk=(   0.40000,   0.28862,   0.00000  )

     zone border point and non-symmorphic group 
     symmetry decomposition not available

 **************************************************************************

 **************************************************************************

                    xk=(   0.37500,   0.28862,   0.00000  )

     zone border point and non-symmorphic group 
     symmetry decomposition not available

 **************************************************************************

 **************************************************************************

                    xk=(   0.35000,   0.28862,   0.00000  )

     zone border point and non-symmorphic group 
     symmetry decomposition not available

 **************************************************************************

 **************************************************************************

                    xk=(   0.32500,   0.28862,   0.00000  )

     zone border point and non-symmorphic group 
     symmetry decomposition not available

 **************************************************************************

 **************************************************************************

                    xk=(   0.30000,   0.28862,   0.00000  )

     zone border point and non-symmorphic group 
     symmetry decomposition not available

 **************************************************************************

 **************************************************************************

                    xk=(   0.27500,   0.28862,   0.00000  )

     zone border point and non-symmorphic group 
     symmetry decomposition not available

 **************************************************************************

 **************************************************************************

                    xk=(   0.25000,   0.28862,   0.00000  )

     zone border point and non-symmorphic group 
     symmetry decomposition not available

 **************************************************************************

 **************************************************************************

                    xk=(   0.22500,   0.28862,   0.00000  )

     zone border point and non-symmorphic group 
     symmetry decomposition not available

 **************************************************************************

 **************************************************************************

                    xk=(   0.20000,   0.28862,   0.00000  )

     zone border point and non-symmorphic group 
     symmetry decomposition not available

 **************************************************************************

 **************************************************************************

                    xk=(   0.17500,   0.28862,   0.00000  )

     zone border point and non-symmorphic group 
     symmetry decomposition not available

 **************************************************************************

 **************************************************************************

                    xk=(   0.15000,   0.28862,   0.00000  )

     zone border point and non-symmorphic group 
     symmetry decomposition not available

 **************************************************************************

 **************************************************************************

                    xk=(   0.12500,   0.28862,   0.00000  )

     zone border point and non-symmorphic group 
     symmetry decomposition not available

 **************************************************************************

 **************************************************************************

                    xk=(   0.10000,   0.28862,   0.00000  )

     zone border point and non-symmorphic group 
     symmetry decomposition not available

 **************************************************************************

 **************************************************************************

                    xk=(   0.07500,   0.28862,   0.00000  )

     zone border point and non-symmorphic group 
     symmetry decomposition not available

 **************************************************************************

 **************************************************************************

                    xk=(   0.05000,   0.28862,   0.00000  )

     zone border point and non-symmorphic group 
     symmetry decomposition not available

 **************************************************************************

 **************************************************************************

                    xk=(   0.02500,   0.28862,   0.00000  )

     zone border point and non-symmorphic group 
     symmetry decomposition not available

 **************************************************************************

 **************************************************************************

                    xk=(   0.00000,   0.28862,   0.00000  )

     zone border point and non-symmorphic group 
     symmetry decomposition not available

 **************************************************************************

 **************************************************************************

                    xk=(   0.00000,   0.27419,   0.00000  )

     point group C_2v (mm2) 
     there are  4 classes
     the character table:

       E     C2    s_v   s_v' 
A_1    1.00  1.00  1.00  1.00
A_2    1.00  1.00 -1.00 -1.00
B_1    1.00 -1.00  1.00 -1.00
B_2    1.00 -1.00 -1.00  1.00

     the symmetry operations in each class and the name of the first element:

     E        1
                                                                 
     C2       2
                                                                 
     s_v      3
                                                                 
     s_v'     4
                                                                 

     Band symmetry, C_2v (mm2)  point group:

     e(  1 -  2) =    -77.52112  eV     2   --> A_1  D_1  S_1  
     e(  1 -  2) =    -77.52112  eV     2   --> B_2  D_4  S_4  
     e(  3 -  4) =    -43.91495  eV     2   --> A_2  D_2  S_2  
     e(  3 -  4) =    -43.91495  eV     2   --> B_1  D_3  S_3  
     e(  5 -  6) =    -43.78978  eV     2   --> A_1  D_1  S_1  
     e(  5 -  6) =    -43.78978  eV     2   --> B_2  D_4  S_4  
     e(  7 -  8) =    -43.46295  eV     2   --> A_1  D_1  S_1  
     e(  7 -  8) =    -43.46295  eV     2   --> B_2  D_4  S_4  
     e(  9 -  9) =     -3.76851  eV     1   --> A_1  D_1  S_1  
     e( 10 - 10) =     -3.62007  eV     1   --> B_2  D_4  S_4  
     e( 11 - 11) =     -1.44383  eV     1   --> A_1  D_1  S_1  
     e( 12 - 12) =     -1.44115  eV     1   --> B_2  D_4  S_4  
     e( 13 - 13) =      3.23728  eV     1   --> A_1  D_1  S_1  
     e( 14 - 14) =      3.24309  eV     1   --> B_2  D_4  S_4  
     e( 15 - 15) =      6.48759  eV     1   --> B_2  D_4  S_4  
     e( 16 - 16) =      6.74766  eV     1   --> A_1  D_1  S_1  
     e( 17 - 17) =      6.80968  eV     1   --> B_2  D_4  S_4  
     e( 18 - 18) =      6.87038  eV     1   --> A_1  D_1  S_1  
     e( 19 - 19) =      7.48304  eV     1   --> A_2  D_2  S_2  
     e( 20 - 20) =      7.48514  eV     1   --> B_1  D_3  S_3  
     e( 21 - 21) =      7.72641  eV     1   --> B_2  D_4  S_4  
     e( 22 - 22) =      7.76895  eV     1   --> A_1  D_1  S_1  
     e( 23 - 23) =      8.15796  eV     1   --> A_1  D_1  S_1  
     e( 24 - 24) =      8.21886  eV     1   --> B_2  D_4  S_4  
     e( 25 - 25) =      8.45474  eV     1   --> A_2  D_2  S_2  
     e( 26 - 26) =      8.46382  eV     1   --> B_1  D_3  S_3  
     e( 27 - 27) =     11.10738  eV     1   --> B_2  D_4  S_4  
     e( 28 - 28) =     11.32804  eV     1   --> A_1  D_1  S_1  
     e( 29 - 29) =     11.38869  eV     1   --> A_2  D_2  S_2  
     e( 30 - 30) =     11.61655  eV     1   -->   ?

 **************************************************************************

 **************************************************************************

                    xk=(   0.00000,   0.25976,   0.00000  )

     Band symmetry, C_2v (mm2)  point group:

     e(  1 -  1) =    -77.52117  eV     1   --> A_1  D_1  S_1  
     e(  2 -  2) =    -77.52103  eV     1   --> B_2  D_4  S_4  
     e(  3 -  4) =    -43.91496  eV     2   --> A_2  D_2  S_2  
     e(  3 -  4) =    -43.91496  eV     2   --> B_1  D_3  S_3  
     e(  5 -  6) =    -43.78984  eV     2   --> A_1  D_1  S_1  
     e(  5 -  6) =    -43.78984  eV     2   --> B_2  D_4  S_4  
     e(  7 -  8) =    -43.46297  eV     2   --> A_1  D_1  S_1  
     e(  7 -  8) =    -43.46297  eV     2   --> B_2  D_4  S_4  
     e(  9 -  9) =     -3.84143  eV     1   --> A_1  D_1  S_1  
     e( 10 - 10) =     -3.54589  eV     1   --> B_2  D_4  S_4  
     e( 11 - 11) =     -1.44344  eV     1   --> A_1  D_1  S_1  
     e( 12 - 12) =     -1.43691  eV     1   --> B_2  D_4  S_4  
     e( 13 - 13) =      3.25118  eV     1   --> A_1  D_1  S_1  
     e( 14 - 14) =      3.26230  eV     1   --> B_2  D_4  S_4  
     e( 15 - 15) =      6.28286  eV     1   --> B_2  D_4  S_4  
     e( 16 - 16) =      6.72222  eV     1   --> A_1  D_1  S_1  
     e( 17 - 17) =      6.83060  eV     1   --> B_2  D_4  S_4  
     e( 18 - 18) =      7.02328  eV     1   --> A_1  D_1  S_1  
     e( 19 - 19) =      7.48407  eV     1   --> A_2  D_2  S_2  
     e( 20 - 20) =      7.48822  eV     1   --> B_1  D_3  S_3  
     e( 21 - 21) =      7.70528  eV     1   --> B_2  D_4  S_4  
     e( 22 - 22) =      7.78973  eV     1   --> A_1  D_1  S_1  
     e( 23 - 23) =      8.12984  eV     1   --> A_1  D_1  S_1  
     e( 24 - 24) =      8.24688  eV     1   --> B_2  D_4  S_4  
     e( 25 - 25) =      8.45071  eV     1   --> A_2  D_2  S_2  
     e( 26 - 26) =      8.46874  eV     1   --> B_1  D_3  S_3  
     e( 27 - 27) =     10.96894  eV     1   --> B_2  D_4  S_4  
     e( 28 - 28) =     11.27132  eV     1   --> A_2  D_2  S_2  
     e( 29 - 29) =     11.35570  eV     1   --> A_1  D_1  S_1  
     e( 30 - 30) =     11.64855  eV     1   --> A_1  D_1  S_1  

 **************************************************************************

 **************************************************************************

                    xk=(   0.00000,   0.24533,   0.00000  )

     Band symmetry, C_2v (mm2)  point group:

     e(  1 -  1) =    -77.52117  eV     1   --> A_1  D_1  S_1  
     e(  2 -  2) =    -77.52105  eV     1   --> B_2  D_4  S_4  
     e(  3 -  4) =    -43.91496  eV     2   --> A_2  D_2  S_2  
     e(  3 -  4) =    -43.91496  eV     2   --> B_1  D_3  S_3  
     e(  5 -  6) =    -43.78982  eV     2   --> A_1  D_1  S_1  
     e(  5 -  6) =    -43.78982  eV     2   --> B_2  D_4  S_4  
     e(  7 -  8) =    -43.46297  eV     2   --> A_1  D_1  S_1  
     e(  7 -  8) =    -43.46297  eV     2   --> B_2  D_4  S_4  
     e(  9 -  9) =     -3.91270  eV     1   --> A_1  D_1  S_1  
     e( 10 - 10) =     -3.47274  eV     1   --> B_2  D_4  S_4  
     e( 11 - 11) =     -1.44253  eV     1   --> A_1  D_1  S_1  
     e( 12 - 12) =     -1.42985  eV     1   --> B_2  D_4  S_4  
     e( 13 - 13) =      3.27650  eV     1   --> A_1  D_1  S_1  
     e( 14 - 14) =      3.29192  eV     1   --> B_2  D_4  S_4  
     e( 15 - 15) =      6.07059  eV     1   --> B_2  D_4  S_4  
     e( 16 - 16) =      6.69242  eV     1   --> A_1  D_1  S_1  
     e( 17 - 17) =      6.84785  eV     1   --> B_2  D_4  S_4  
     e( 18 - 18) =      7.15088  eV     1   --> A_1  D_1  S_1  
     e( 19 - 19) =      7.48648  eV     1   --> A_2  D_2  S_2  
     e( 20 - 20) =      7.49258  eV     1   --> B_1  D_3  S_3  
     e( 21 - 21) =      7.68347  eV     1   --> B_2  D_4  S_4  
     e( 22 - 22) =      7.80559  eV     1   --> A_1  D_1  S_1  
     e( 23 - 23) =      8.11106  eV     1   --> A_1  D_1  S_1  
     e( 24 - 24) =      8.27218  eV     1   --> B_2  D_4  S_4  
     e( 25 - 25) =      8.44711  eV     1   --> A_2  D_2  S_2  
     e( 26 - 26) =      8.47381  eV     1   --> B_1  D_3  S_3  
     e( 27 - 27) =     10.82785  eV     1   --> B_2  D_4  S_4  
     e( 28 - 28) =     11.15426  eV     1   --> A_2  D_2  S_2  
     e( 29 - 29) =     11.33561  eV     1   --> A_1  D_1  S_1  
     e( 30 - 30) =     11.73049  eV     1   --> A_1  D_1  S_1  

 **************************************************************************

 **************************************************************************

                    xk=(   0.00000,   0.23090,   0.00000  )

     Band symmetry, C_2v (mm2)  point group:

     e(  1 -  1) =    -77.52116  eV     1   --> A_1  D_1  S_1  
     e(  2 -  2) =    -77.52103  eV     1   --> B_2  D_4  S_4  
     e(  3 -  4) =    -43.91495  eV     2   --> A_2  D_2  S_2  
     e(  3 -  4) =    -43.91495  eV     2   --> B_1  D_3  S_3  
     e(  5 -  6) =    -43.78980  eV     2   --> A_1  D_1  S_1  
     e(  5 -  6) =    -43.78980  eV     2   --> B_2  D_4  S_4  
     e(  7 -  8) =    -43.46298  eV     2   --> A_1  D_1  S_1  
     e(  7 -  8) =    -43.46298  eV     2   --> B_2  D_4  S_4  
     e(  9 -  9) =     -3.98184  eV     1   --> A_1  D_1  S_1  
     e( 10 - 10) =     -3.40144  eV     1   --> B_2  D_4  S_4  
     e( 11 - 11) =     -1.44148  eV     1   --> A_1  D_1  S_1  
     e( 12 - 12) =     -1.41926  eV     1   --> B_2  D_4  S_4  
     e( 13 - 13) =      3.31331  eV     1   --> A_1  D_1  S_1  
     e( 14 - 14) =      3.33156  eV     1   --> B_2  D_4  S_4  
     e( 15 - 15) =      5.85436  eV     1   --> B_2  D_4  S_4  
     e( 16 - 16) =      6.66143  eV     1   --> A_1  D_1  S_1  
     e( 17 - 17) =      6.85996  eV     1   --> B_2  D_4  S_4  
     e( 18 - 18) =      7.24485  eV     1   --> A_1  D_1  S_1  
     e( 19 - 19) =      7.49021  eV     1   --> A_2  D_2  S_2  
     e( 20 - 20) =      7.49813  eV     1   --> B_1  D_3  S_3  
     e( 21 - 21) =      7.66039  eV     1   --> B_2  D_4  S_4  
     e( 22 - 22) =      7.80806  eV     1   --> A_1  D_1  S_1  
     e( 23 - 23) =      8.11136  eV     1   --> A_1  D_1  S_1  
     e( 24 - 24) =      8.29455  eV     1   --> B_2  D_4  S_4  
     e( 25 - 25) =      8.44402  eV     1   --> A_2  D_2  S_2  
     e( 26 - 26) =      8.47898  eV     1   --> B_1  D_3  S_3  
     e( 27 - 27) =     10.68926  eV     1   --> B_2  D_4  S_4  
     e( 28 - 28) =     11.03874  eV     1   --> A_2  D_2  S_2  
     e( 29 - 29) =     11.31134  eV     1   --> A_1  D_1  S_1  
     e( 30 - 30) =     11.82165  eV     1   --> A_1  D_1  S_1  

 **************************************************************************

 **************************************************************************

                    xk=(   0.00000,   0.21647,   0.00000  )

     Band symmetry, C_2v (mm2)  point group:

     e(  1 -  2) =    -77.52116  eV     2   --> A_1  D_1  S_1  
     e(  1 -  2) =    -77.52116  eV     2   --> B_2  D_4  S_4  
     e(  3 -  4) =    -43.91498  eV     2   --> A_2  D_2  S_2  
     e(  3 -  4) =    -43.91498  eV     2   --> B_1  D_3  S_3  
     e(  5 -  6) =    -43.78977  eV     2   --> A_1  D_1  S_1  
     e(  5 -  6) =    -43.78977  eV     2   --> B_2  D_4  S_4  
     e(  7 -  8) =    -43.46302  eV     2   --> A_1  D_1  S_1  
     e(  7 -  8) =    -43.46302  eV     2   --> B_2  D_4  S_4  
     e(  9 -  9) =     -4.04840  eV     1   --> A_1  D_1  S_1  
     e( 10 - 10) =     -3.33285  eV     1   --> B_2  D_4  S_4  
     e( 11 - 11) =     -1.44058  eV     1   --> A_1  D_1  S_1  
     e( 12 - 12) =     -1.40446  eV     1   --> B_2  D_4  S_4  
     e( 13 - 13) =      3.36157  eV     1   --> A_1  D_1  S_1  
     e( 14 - 14) =      3.38070  eV     1   --> B_2  D_4  S_4  
     e( 15 - 15) =      5.63686  eV     1   --> B_2  D_4  S_4  
     e( 16 - 16) =      6.63006  eV     1   --> A_1  D_1  S_1  
     e( 17 - 17) =      6.86549  eV     1   --> B_2  D_4  S_4  
     e( 18 - 18) =      7.30141  eV     1   --> A_1  D_1  S_1  
     e( 19 - 19) =      7.49520  eV     1   --> A_2  D_2  S_2  
     e( 20 - 20) =      7.50474  eV     1   --> B_1  D_3  S_3  
     e( 21 - 21) =      7.63571  eV     1   --> B_2  D_4  S_4  
     e( 22 - 22) =      7.79183  eV     1   --> A_1  D_1  S_1  
     e( 23 - 23) =      8.13541  eV     1   --> A_1  D_1  S_1  
     e( 24 - 24) =      8.31404  eV     1   --> B_2  D_4  S_4  
     e( 25 - 25) =      8.44149  eV     1   --> A_2  D_2  S_2  
     e( 26 - 26) =      8.48418  eV     1   --> B_1  D_3  S_3  
     e( 27 - 27) =     10.55687  eV     1   --> B_2  D_4  S_4  
     e( 28 - 28) =     10.92570  eV     1   --> A_2  D_2  S_2  
     e( 29 - 29) =     11.30329  eV     1   --> A_1  D_1  S_1  
     e( 30 - 30) =     11.90620  eV     1   --> A_1  D_1  S_1  

 **************************************************************************

 **************************************************************************

                    xk=(   0.00000,   0.20203,   0.00000  )

     Band symmetry, C_2v (mm2)  point group:

     e(  1 -  2) =    -77.52116  eV     2   --> A_1  D_1  S_1  
     e(  1 -  2) =    -77.52116  eV     2   --> B_2  D_4  S_4  
     e(  3 -  4) =    -43.91497  eV     2   --> A_2  D_2  S_2  
     e(  3 -  4) =    -43.91497  eV     2   --> B_1  D_3  S_3  
     e(  5 -  6) =    -43.78976  eV     2   --> A_1  D_1  S_1  
     e(  5 -  6) =    -43.78976  eV     2   --> B_2  D_4  S_4  
     e(  7 -  8) =    -43.46303  eV     2   --> A_1  D_1  S_1  
     e(  7 -  8) =    -43.46303  eV     2   --> B_2  D_4  S_4  
     e(  9 -  9) =     -4.11202  eV     1   --> A_1  D_1  S_1  
     e( 10 - 10) =     -3.26780  eV     1   --> B_2  D_4  S_4  
     e( 11 - 11) =     -1.44002  eV     1   --> A_1  D_1  S_1  
     e( 12 - 12) =     -1.38484  eV     1   --> B_2  D_4  S_4  
     e( 13 - 13) =      3.42119  eV     1   --> A_1  D_1  S_1  
     e( 14 - 14) =      3.43882  eV     1   --> B_2  D_4  S_4  
     e( 15 - 15) =      5.42037  eV     1   --> B_2  D_4  S_4  
     e( 16 - 16) =      6.59882  eV     1   --> A_1  D_1  S_1  
     e( 17 - 17) =      6.86288  eV     1   --> B_2  D_4  S_4  
     e( 18 - 18) =      7.31876  eV     1   --> A_1  D_1  S_1  
     e( 19 - 19) =      7.50134  eV     1   --> A_2  D_2  S_2  
     e( 20 - 20) =      7.51230  eV     1   --> B_1  D_3  S_3  
     e( 21 - 21) =      7.60946  eV     1   --> B_2  D_4  S_4  
     e( 22 - 22) =      7.76318  eV     1   --> A_1  D_1  S_1  
     e( 23 - 23) =      8.17549  eV     1   --> A_1  D_1  S_1  
     e( 24 - 24) =      8.33082  eV     1   --> B_2  D_4  S_4  
     e( 25 - 25) =      8.43960  eV     1   --> A_2  D_2  S_2  
     e( 26 - 26) =      8.48936  eV     1   --> B_1  D_3  S_3  
     e( 27 - 27) =     10.43351  eV     1   --> B_2  D_4  S_4  
     e( 28 - 28) =     10.81589  eV     1   --> A_2  D_2  S_2  
     e( 29 - 29) =     11.32062  eV     1   --> A_1  D_1  S_1  
     e( 30 - 30) =     11.92319  eV     1   --> B_1  D_3  S_3  

 **************************************************************************

 **************************************************************************

                    xk=(   0.00000,   0.18760,   0.00000  )

     Band symmetry, C_2v (mm2)  point group:

     e(  1 -  2) =    -77.52114  eV     2   --> A_1  D_1  S_1  
     e(  1 -  2) =    -77.52114  eV     2   --> B_2  D_4  S_4  
     e(  3 -  4) =    -43.91499  eV     2   --> A_2  D_2  S_2  
     e(  3 -  4) =    -43.91499  eV     2   --> B_1  D_3  S_3  
     e(  5 -  6) =    -43.78975  eV     2   --> A_1  D_1  S_1  
     e(  5 -  6) =    -43.78975  eV     2   --> B_2  D_4  S_4  
     e(  7 -  7) =    -43.46304  eV     1   --> A_1  D_1  S_1  
     e(  8 -  8) =    -43.46293  eV     1   --> B_2  D_4  S_4  
     e(  9 -  9) =     -4.17236  eV     1   --> A_1  D_1  S_1  
     e( 10 - 10) =     -3.20709  eV     1   --> B_2  D_4  S_4  
     e( 11 - 11) =     -1.43993  eV     1   --> A_1  D_1  S_1  
     e( 12 - 12) =     -1.35993  eV     1   --> B_2  D_4  S_4  
     e( 13 - 13) =      3.49202  eV     1   --> A_1  D_1  S_1  
     e( 14 - 14) =      3.50531  eV     1   --> B_2  D_4  S_4  
     e( 15 - 15) =      5.20681  eV     1   --> B_2  D_4  S_4  
     e( 16 - 16) =      6.56811  eV     1   --> A_1  D_1  S_1  
     e( 17 - 17) =      6.85038  eV     1   --> B_2  D_4  S_4  
     e( 18 - 18) =      7.29580  eV     1   --> A_1  D_1  S_1  
     e( 19 - 19) =      7.50849  eV     1   --> A_2  D_2  S_2  
     e( 20 - 20) =      7.52063  eV     1   --> B_1  D_3  S_3  
     e( 21 - 21) =      7.58213  eV     1   --> B_2  D_4  S_4  
     e( 22 - 22) =      7.73412  eV     1   --> A_1  D_1  S_1  
     e( 23 - 23) =      8.21929  eV     1   --> A_1  D_1  S_1  
     e( 24 - 24) =      8.34521  eV     1   --> B_2  D_4  S_4  
     e( 25 - 25) =      8.43839  eV     1   --> A_2  D_2  S_2  
     e( 26 - 26) =      8.49446  eV     1   --> B_1  D_3  S_3  
     e( 27 - 27) =     10.32134  eV     1   --> B_2  D_4  S_4  
     e( 28 - 28) =     10.70995  eV     1   --> A_2  D_2  S_2  
     e( 29 - 29) =     11.36775  eV     1   --> A_1  D_1  S_1  
     e( 30 - 30) =     11.90749  eV     1   --> B_1  D_3  S_3  

 **************************************************************************

 **************************************************************************

                    xk=(   0.00000,   0.17317,   0.00000  )

     Band symmetry, C_2v (mm2)  point group:

     e(  1 -  2) =    -77.52113  eV     2   --> A_1  D_1  S_1  
     e(  1 -  2) =    -77.52113  eV     2   --> B_2  D_4  S_4  
     e(  3 -  3) =    -43.91504  eV     1   --> A_2  D_2  S_2  
     e(  4 -  4) =    -43.91490  eV     1   --> B_1  D_3  S_3  
     e(  5 -  6) =    -43.78979  eV     2   --> A_1  D_1  S_1  
     e(  5 -  6) =    -43.78979  eV     2   --> B_2  D_4  S_4  
     e(  7 -  7) =    -43.46306  eV     1   --> A_1  D_1  S_1  
     e(  8 -  8) =    -43.46292  eV     1   --> B_2  D_4  S_4  
     e(  9 -  9) =     -4.22915  eV     1   --> A_1  D_1  S_1  
     e( 10 - 10) =     -3.15137  eV     1   --> B_2  D_4  S_4  
     e( 11 - 11) =     -1.44035  eV     1   --> A_1  D_1  S_1  
     e( 12 - 12) =     -1.32949  eV     1   --> B_2  D_4  S_4  
     e( 13 - 13) =      3.57382  eV     1   --> A_1  D_1  S_1  
     e( 14 - 14) =      3.57946  eV     1   --> B_2  D_4  S_4  
     e( 15 - 15) =      4.99799  eV     1   --> B_2  D_4  S_4  
     e( 16 - 16) =      6.53821  eV     1   --> A_1  D_1  S_1  
     e( 17 - 17) =      6.82623  eV     1   --> B_2  D_4  S_4  
     e( 18 - 18) =      7.23382  eV     1   --> A_1  D_1  S_1  
     e( 19 - 19) =      7.51649  eV     1   --> A_2  D_2  S_2  
     e( 20 - 20) =      7.52956  eV     1   --> B_1  D_3  S_3  
     e( 21 - 21) =      7.55469  eV     1   --> B_2  D_4  S_4  
     e( 22 - 22) =      7.71276  eV     1   --> A_1  D_1  S_1  
     e( 23 - 23) =      8.25815  eV     1   --> A_1  D_1  S_1  
     e( 24 - 24) =      8.35759  eV     1   --> B_2  D_4  S_4  
     e( 25 - 25) =      8.43790  eV     1   --> A_2  D_2  S_2  
     e( 26 - 26) =      8.49942  eV     1   --> B_1  D_3  S_3  
     e( 27 - 27) =     10.22177  eV     1   --> B_2  D_4  S_4  
     e( 28 - 28) =     10.60846  eV     1   --> A_2  D_2  S_2  
     e( 29 - 29) =     11.44569  eV     1   --> A_1  D_1  S_1  
     e( 30 - 30) =     11.87678  eV     1   --> B_1  D_3  S_3  

 **************************************************************************

 **************************************************************************

                    xk=(   0.00000,   0.15874,   0.00000  )

     Band symmetry, C_2v (mm2)  point group:

     e(  1 -  2) =    -77.52112  eV     2   --> A_1  D_1  S_1  
     e(  1 -  2) =    -77.52112  eV     2   --> B_2  D_4  S_4  
     e(  3 -  4) =    -43.91501  eV     2   --> A_2  D_2  S_2  
     e(  3 -  4) =    -43.91501  eV     2   --> B_1  D_3  S_3  
     e(  5 -  6) =    -43.78977  eV     2   --> A_1  D_1  S_1  
     e(  5 -  6) =    -43.78977  eV     2   --> B_2  D_4  S_4  
     e(  7 -  7) =    -43.46307  eV     1   --> A_1  D_1  S_1  
     e(  8 -  8) =    -43.46289  eV     1   --> B_2  D_4  S_4  
     e(  9 -  9) =     -4.28214  eV     1   --> A_1  D_1  S_1  
     e( 10 - 10) =     -3.10116  eV     1   --> B_2  D_4  S_4  
[...]

 **************************************************************************

                    xk=(   0.42500,   0.04329,   0.24265  )

     zone border point and non-symmorphic group 
     symmetry decomposition not available

 **************************************************************************

 **************************************************************************

                    xk=(   0.45000,   0.02886,   0.24265  )

     zone border point and non-symmorphic group 
     symmetry decomposition not available

 **************************************************************************

 **************************************************************************

                    xk=(   0.47500,   0.01443,   0.24265  )

     zone border point and non-symmorphic group 
     symmetry decomposition not available

 **************************************************************************

 **************************************************************************

                    xk=(   0.50000,   0.00000,   0.24265  )

     zone border point and non-symmorphic group 
     symmetry decomposition not available

 **************************************************************************

 **************************************************************************

                    xk=(   0.50000,   0.00000,   0.23052  )

     zone border point and non-symmorphic group 
     symmetry decomposition not available

 **************************************************************************

 **************************************************************************

                    xk=(   0.50000,   0.00000,   0.21838  )

     zone border point and non-symmorphic group 
     symmetry decomposition not available

 **************************************************************************

 **************************************************************************

                    xk=(   0.50000,   0.00000,   0.20625  )

     zone border point and non-symmorphic group 
     symmetry decomposition not available

 **************************************************************************

 **************************************************************************

                    xk=(   0.50000,   0.00000,   0.19412  )

     zone border point and non-symmorphic group 
     symmetry decomposition not available

 **************************************************************************

 **************************************************************************

                    xk=(   0.50000,   0.00000,   0.18199  )

     zone border point and non-symmorphic group 
     symmetry decomposition not available

 **************************************************************************

 **************************************************************************

                    xk=(   0.50000,   0.00000,   0.16985  )

     zone border point and non-symmorphic group 
     symmetry decomposition not available

 **************************************************************************

 **************************************************************************

                    xk=(   0.50000,   0.00000,   0.15772  )

     zone border point and non-symmorphic group 
     symmetry decomposition not available

 **************************************************************************

 **************************************************************************

                    xk=(   0.50000,   0.00000,   0.14559  )

     zone border point and non-symmorphic group 
     symmetry decomposition not available

 **************************************************************************

 **************************************************************************

                    xk=(   0.50000,   0.00000,   0.13346  )

     zone border point and non-symmorphic group 
     symmetry decomposition not available

 **************************************************************************

 **************************************************************************

                    xk=(   0.50000,   0.00000,   0.12132  )

     zone border point and non-symmorphic group 
     symmetry decomposition not available

 **************************************************************************

 **************************************************************************

                    xk=(   0.50000,   0.00000,   0.10919  )

     zone border point and non-symmorphic group 
     symmetry decomposition not available

 **************************************************************************

 **************************************************************************

                    xk=(   0.50000,   0.00000,   0.09706  )

     zone border point and non-symmorphic group 
     symmetry decomposition not available

 **************************************************************************

 **************************************************************************

                    xk=(   0.50000,   0.00000,   0.08493  )

     zone border point and non-symmorphic group 
     symmetry decomposition not available

 **************************************************************************

 **************************************************************************

                    xk=(   0.50000,   0.00000,   0.07279  )

     zone border point and non-symmorphic group 
     symmetry decomposition not available

 **************************************************************************

 **************************************************************************

                    xk=(   0.50000,   0.00000,   0.06066  )

     zone border point and non-symmorphic group 
     symmetry decomposition not available

 **************************************************************************

 **************************************************************************

                    xk=(   0.50000,   0.00000,   0.04853  )

     zone border point and non-symmorphic group 
     symmetry decomposition not available

 **************************************************************************

 **************************************************************************

                    xk=(   0.50000,   0.00000,   0.03640  )

     zone border point and non-symmorphic group 
     symmetry decomposition not available

 **************************************************************************

 **************************************************************************

                    xk=(   0.50000,   0.00000,   0.02426  )

     zone border point and non-symmorphic group 
     symmetry decomposition not available

 **************************************************************************

 **************************************************************************

                    xk=(   0.50000,   0.00000,   0.01213  )

     zone border point and non-symmorphic group 
     symmetry decomposition not available

 **************************************************************************

 **************************************************************************

                    xk=(   0.50000,   0.00000,   0.00000  )

     zone border point and non-symmorphic group 
     symmetry decomposition not available

 **************************************************************************

 **************************************************************************

                    xk=(   0.50000,   0.01443,   0.00000  )

     zone border point and non-symmorphic group 
     symmetry decomposition not available

 **************************************************************************

 **************************************************************************

                    xk=(   0.50000,   0.02886,   0.00000  )

     zone border point and non-symmorphic group 
     symmetry decomposition not available

 **************************************************************************

 **************************************************************************

                    xk=(   0.50000,   0.04329,   0.00000  )

     zone border point and non-symmorphic group 
     symmetry decomposition not available

 **************************************************************************

 **************************************************************************

                    xk=(   0.50000,   0.05772,   0.00000  )

     zone border point and non-symmorphic group 
     symmetry decomposition not available

 **************************************************************************

 **************************************************************************

                    xk=(   0.50000,   0.07216,   0.00000  )

     zone border point and non-symmorphic group 
     symmetry decomposition not available

 **************************************************************************

 **************************************************************************

                    xk=(   0.50000,   0.08659,   0.00000  )

     zone border point and non-symmorphic group 
     symmetry decomposition not available

 **************************************************************************

 **************************************************************************

                    xk=(   0.50000,   0.10102,   0.00000  )

     zone border point and non-symmorphic group 
     symmetry decomposition not available

 **************************************************************************

 **************************************************************************

                    xk=(   0.50000,   0.11545,   0.00000  )

     zone border point and non-symmorphic group 
     symmetry decomposition not available

 **************************************************************************

 **************************************************************************

                    xk=(   0.50000,   0.12988,   0.00000  )

     zone border point and non-symmorphic group 
     symmetry decomposition not available

 **************************************************************************

 **************************************************************************

                    xk=(   0.50000,   0.14431,   0.00000  )

     zone border point and non-symmorphic group 
     symmetry decomposition not available

 **************************************************************************

 **************************************************************************

                    xk=(   0.50000,   0.15874,   0.00000  )

     zone border point and non-symmorphic group 
     symmetry decomposition not available

 **************************************************************************

 **************************************************************************

                    xk=(   0.50000,   0.17317,   0.00000  )

     zone border point and non-symmorphic group 
     symmetry decomposition not available

 **************************************************************************

 **************************************************************************

                    xk=(   0.50000,   0.18760,   0.00000  )

     zone border point and non-symmorphic group 
     symmetry decomposition not available

 **************************************************************************

 **************************************************************************

                    xk=(   0.50000,   0.20203,   0.00000  )

     zone border point and non-symmorphic group 
     symmetry decomposition not available

 **************************************************************************

 **************************************************************************

                    xk=(   0.50000,   0.21647,   0.00000  )

     zone border point and non-symmorphic group 
     symmetry decomposition not available

 **************************************************************************

 **************************************************************************

                    xk=(   0.50000,   0.23090,   0.00000  )

     zone border point and non-symmorphic group 
     symmetry decomposition not available

 **************************************************************************

 **************************************************************************

                    xk=(   0.50000,   0.24533,   0.00000  )

     zone border point and non-symmorphic group 
     symmetry decomposition not available

 **************************************************************************

 **************************************************************************

                    xk=(   0.50000,   0.25976,   0.00000  )

     zone border point and non-symmorphic group 
     symmetry decomposition not available

 **************************************************************************

 **************************************************************************

                    xk=(   0.50000,   0.27419,   0.00000  )

     zone border point and non-symmorphic group 
     symmetry decomposition not available

 **************************************************************************

 **************************************************************************

                    xk=(   0.50000,   0.28862,   0.00000  )

     zone border point and non-symmorphic group 
     symmetry decomposition not available

 **************************************************************************

 **************************************************************************

                    xk=(   0.50000,   0.28862,   0.01213  )

     zone border point and non-symmorphic group 
     symmetry decomposition not available

 **************************************************************************

 **************************************************************************

                    xk=(   0.50000,   0.28862,   0.02426  )

     zone border point and non-symmorphic group 
     symmetry decomposition not available

 **************************************************************************

 **************************************************************************

                    xk=(   0.50000,   0.28862,   0.03640  )

     zone border point and non-symmorphic group 
     symmetry decomposition not available

 **************************************************************************

 **************************************************************************

                    xk=(   0.50000,   0.28862,   0.04853  )

     zone border point and non-symmorphic group 
     symmetry decomposition not available

 **************************************************************************

 **************************************************************************

                    xk=(   0.50000,   0.28862,   0.06066  )

     zone border point and non-symmorphic group 
     symmetry decomposition not available

 **************************************************************************

 **************************************************************************

                    xk=(   0.50000,   0.28862,   0.07279  )

     zone border point and non-symmorphic group 
     symmetry decomposition not available

 **************************************************************************

 **************************************************************************

                    xk=(   0.50000,   0.28862,   0.08493  )

     zone border point and non-symmorphic group 
     symmetry decomposition not available

 **************************************************************************

 **************************************************************************

                    xk=(   0.50000,   0.28862,   0.09706  )

     zone border point and non-symmorphic group 
     symmetry decomposition not available

 **************************************************************************

 **************************************************************************

                    xk=(   0.50000,   0.28862,   0.10919  )

     zone border point and non-symmorphic group 
     symmetry decomposition not available

 **************************************************************************

 **************************************************************************

                    xk=(   0.50000,   0.28862,   0.12132  )

     zone border point and non-symmorphic group 
     symmetry decomposition not available

 **************************************************************************

 **************************************************************************

                    xk=(   0.50000,   0.28862,   0.13346  )

     zone border point and non-symmorphic group 
     symmetry decomposition not available

 **************************************************************************

 **************************************************************************

                    xk=(   0.50000,   0.28862,   0.14559  )

     zone border point and non-symmorphic group 
     symmetry decomposition not available

 **************************************************************************

 **************************************************************************

                    xk=(   0.50000,   0.28862,   0.15772  )

     zone border point and non-symmorphic group 
     symmetry decomposition not available

 **************************************************************************

 **************************************************************************

                    xk=(   0.50000,   0.28862,   0.16985  )

     zone border point and non-symmorphic group 
     symmetry decomposition not available

 **************************************************************************

 **************************************************************************

                    xk=(   0.50000,   0.28862,   0.18199  )

     zone border point and non-symmorphic group 
     symmetry decomposition not available

 **************************************************************************

 **************************************************************************

                    xk=(   0.50000,   0.28862,   0.19412  )

     zone border point and non-symmorphic group 
     symmetry decomposition not available

 **************************************************************************

 **************************************************************************

                    xk=(   0.50000,   0.28862,   0.20625  )

     zone border point and non-symmorphic group 
     symmetry decomposition not available

 **************************************************************************

 **************************************************************************

                    xk=(   0.50000,   0.28862,   0.21838  )

     zone border point and non-symmorphic group 
     symmetry decomposition not available

 **************************************************************************

 **************************************************************************

                    xk=(   0.50000,   0.28862,   0.23052  )

     zone border point and non-symmorphic group 
     symmetry decomposition not available

 **************************************************************************

 **************************************************************************

                    xk=(   0.50000,   0.28862,   0.24265  )

     zone border point and non-symmorphic group 
     symmetry decomposition not available

 **************************************************************************

     BANDS        :   4m51.20s CPU   5m22.02s WALL


   This run was terminated on:  14:31:45  28Nov2020            

=------------------------------------------------------------------------------=
   JOB DONE.
=------------------------------------------------------------------------------=
