
     Program BANDS v.6.6 starts on  8Nov2020 at 23:27:44 

     This program is part of the open-source Quantum ESPRESSO suite
     for quantum simulation of materials; please cite
         "P. Giannozzi et al., J. Phys.:Condens. Matter 21 395502 (2009);
         "P. Giannozzi et al., J. Phys.:Condens. Matter 29 465901 (2017);
          URL http://www.quantum-espresso.org", 
     in publications or presentations arising from this work. More details at
     http://www.quantum-espresso.org/quote

     Parallel version (MPI & OpenMP), running on       2 processor cores
     Number of MPI processes:                 2
     Threads/MPI process:                     1

     MPI processes distributed on     1 nodes
     R & G space division:  proc/nbgrp/npool/nimage =       2
     Fft bands division:     nmany     =       1

     Reading xml data from directory:

     ../tmp/PtS2.save/
     file Pt.pbesol-n-kjpaw_psl.1.0.0.UPF: wavefunction(s)  6S 5D renormalized
     file S.pbesol-n-kjpaw_psl.1.0.0.UPF: wavefunction(s)  3S 3P renormalized

     IMPORTANT: XC functional enforced from input :
     Exchange-correlation= PBESOL
                           (   1   4  10   8   0   0   0)
     Any further DFT definition will be discarded
     Please, verify this is what you really want


     Parallelization info
     --------------------
     sticks:   dense  smooth     PW     G-vecs:    dense   smooth      PW
     Min        1257     630    180                81015    28654    4404
     Max        1258     631    181                81020    28655    4405
     Sum        2515    1261    361               162035    57309    8809

     Reading collected, re-writing distributed wavefunctions
     high-symmetry point:  0.0000 0.0000 0.0000   x coordinate   0.0000
     high-symmetry point:  0.5000-0.2887 0.0000   x coordinate   0.5773
     high-symmetry point:  0.6667 0.0000 0.0000   x coordinate   0.9107
     high-symmetry point:  0.0000 0.0000 0.0000   x coordinate   1.5773
     high-symmetry point:  0.0000-0.0000 0.3132   x coordinate   1.8905
     high-symmetry point:  0.5000-0.2887 0.3132   x coordinate   2.4678
     high-symmetry point:  0.6667-0.0000 0.3132   x coordinate   2.8012
     high-symmetry point:  0.0000-0.0000 0.3132   x coordinate   3.4678
     high-symmetry point:  0.5000-0.2887 0.3132   x coordinate   4.0452
     high-symmetry point:  0.5000-0.2887 0.0000   x coordinate   4.3583
     high-symmetry point:  0.6667 0.0000 0.0000   x coordinate   4.6917
     high-symmetry point:  0.6667-0.0000 0.3132   x coordinate   5.0048

     Plottable bands (eV) written to file PtS2.bands.gnu
     Bands written to file PtS2.bands

 **************************************************************************

                    xk=(   0.00000,   0.00000,   0.00000  )

     point group C_2h (2/m) 
     there are  4 classes
     the character table:

       E     C2    i     s_h  
A_g    1.00  1.00  1.00  1.00
B_g    1.00 -1.00  1.00 -1.00
A_u    1.00  1.00 -1.00 -1.00
B_u    1.00 -1.00 -1.00  1.00

     the symmetry operations in each class and the name of the first element:

     E        1
                                                                 
     C2       2
                                                                 
     i        3
                                                                 
     s_h      4
                                                                 

     Band symmetry, C_2h (2/m)  point group:

     e(  1 -  1) =     -7.49074  eV     1   --> A_g            
     e(  2 -  2) =     -5.08147  eV     1   --> B_u            
     e(  3 -  3) =      1.00205  eV     1   --> A_g            
     e(  4 -  4) =      1.02478  eV     1   --> A_g            
     e(  5 -  5) =      1.02492  eV     1   --> B_g            
     e(  6 -  7) =      3.68917  eV     2   --> A_g            
     e(  6 -  7) =      3.68917  eV     2   --> B_g            
     e(  8 -  8) =      5.46421  eV     1   --> A_g            
     e(  9 - 10) =      6.35260  eV     2   --> A_u            
     e(  9 - 10) =      6.35260  eV     2   --> B_u            
     e( 11 - 11) =      6.78780  eV     1   --> B_u            
     e( 12 - 13) =      9.61795  eV     2   --> A_g            
     e( 12 - 13) =      9.61795  eV     2   --> B_g            
     e( 14 - 14) =     12.17845  eV     1   --> A_g            
     e( 15 - 15) =     12.35333  eV     1   --> B_u            
     e( 16 - 16) =     15.31485  eV     1   --> A_u            
     e( 17 - 17) =     15.31526  eV     1   --> B_u            
     e( 18 - 18) =     17.60372  eV     1   --> A_g            
     e( 19 - 19) =     19.54290  eV     1   --> A_g            
     e( 20 - 20) =     19.54312  eV     1   --> B_g            

 **************************************************************************

 **************************************************************************

                    xk=(   0.02500,  -0.01443,   0.00000  )

     point group C_1 (1)    
     there are  1 classes
     the character table:

       E    
A      1.00

     the symmetry operations in each class and the name of the first element:

     E        1
                                                                 

     Band symmetry, C_1 (1)     point group:

     e(  1 -  1) =     -7.48295  eV     1   --> A              
     e(  2 -  2) =     -5.08388  eV     1   --> A              
     e(  3 -  3) =      1.00983  eV     1   --> A              
     e(  4 -  4) =      1.02758  eV     1   --> A              
     e(  5 -  5) =      1.02980  eV     1   --> A              
     e(  6 -  6) =      3.67797  eV     1   --> A              
     e(  7 -  7) =      3.68254  eV     1   --> A              
     e(  8 -  8) =      5.44045  eV     1   --> A              
     e(  9 -  9) =      6.34957  eV     1   --> A              
     e( 10 - 10) =      6.35590  eV     1   --> A              
     e( 11 - 11) =      6.79570  eV     1   --> A              
     e( 12 - 12) =      9.57573  eV     1   --> A              
     e( 13 - 13) =      9.60875  eV     1   --> A              
     e( 14 - 14) =     12.21301  eV     1   --> A              
     e( 15 - 15) =     12.40299  eV     1   --> A              
     e( 16 - 16) =     15.28347  eV     1   --> A              
     e( 17 - 17) =     15.34113  eV     1   --> A              
     e( 18 - 18) =     17.59685  eV     1   --> A              
     e( 19 - 19) =     19.42620  eV     1   --> A              
     e( 20 - 20) =     19.53071  eV     1   --> A              

 **************************************************************************

 **************************************************************************

                    xk=(   0.05000,  -0.02887,   0.00000  )

     Band symmetry, C_1 (1)     point group:

     e(  1 -  1) =     -7.45964  eV     1   --> A              
     e(  2 -  2) =     -5.09108  eV     1   --> A              
     e(  3 -  3) =      1.02922  eV     1   --> A              
     e(  4 -  4) =      1.03963  eV     1   --> A              
     e(  5 -  5) =      1.04459  eV     1   --> A              
     e(  6 -  6) =      3.64378  eV     1   --> A              
     e(  7 -  7) =      3.66310  eV     1   --> A              
     e(  8 -  8) =      5.37181  eV     1   --> A              
     e(  9 -  9) =      6.34085  eV     1   --> A              
     e( 10 - 10) =      6.36470  eV     1   --> A              
     e( 11 - 11) =      6.81795  eV     1   --> A              
     e( 12 - 12) =      9.45911  eV     1   --> A              
     e( 13 - 13) =      9.58232  eV     1   --> A              
     e( 14 - 14) =     12.31431  eV     1   --> A              
     e( 15 - 15) =     12.54072  eV     1   --> A              
     e( 16 - 16) =     15.19472  eV     1   --> A              
     e( 17 - 17) =     15.41771  eV     1   --> A              
     e( 18 - 18) =     17.57302  eV     1   --> A              
     e( 19 - 19) =     19.16650  eV     1   --> A              
     e( 20 - 20) =     19.48581  eV     1   --> A              

 **************************************************************************

 **************************************************************************

                    xk=(   0.07500,  -0.04330,   0.00000  )

     Band symmetry, C_1 (1)     point group:

     e(  1 -  1) =     -7.42105  eV     1   --> A              
     e(  2 -  2) =     -5.10287  eV     1   --> A              
     e(  3 -  3) =      1.04396  eV     1   --> A              
     e(  4 -  4) =      1.06882  eV     1   --> A              
     e(  5 -  5) =      1.07723  eV     1   --> A              
     e(  6 -  6) =      3.58510  eV     1   --> A              
     e(  7 -  7) =      3.63282  eV     1   --> A              
     e(  8 -  8) =      5.26610  eV     1   --> A              
     e(  9 -  9) =      6.32766  eV     1   --> A              
     e( 10 - 10) =      6.37606  eV     1   --> A              
     e( 11 - 11) =      6.84998  eV     1   --> A              
     e( 12 - 12) =      9.29183  eV     1   --> A              
     e( 13 - 13) =      9.54234  eV     1   --> A              
     e( 14 - 14) =     12.47520  eV     1   --> A              
     e( 15 - 15) =     12.73936  eV     1   --> A              
     e( 16 - 16) =     15.06496  eV     1   --> A              
     e( 17 - 17) =     15.54102  eV     1   --> A              
     e( 18 - 18) =     17.52361  eV     1   --> A              
     e( 19 - 19) =     18.86212  eV     1   --> A              
     e( 20 - 20) =     19.38569  eV     1   --> A              

 **************************************************************************

 **************************************************************************

                    xk=(   0.10000,  -0.05774,   0.00000  )

     Band symmetry, C_1 (1)     point group:

     e(  1 -  1) =     -7.36759  eV     1   --> A              
     e(  2 -  2) =     -5.11898  eV     1   --> A              
     e(  3 -  3) =      1.06105  eV     1   --> A              
     e(  4 -  4) =      1.10180  eV     1   --> A              
     e(  5 -  5) =      1.13331  eV     1   --> A              
     e(  6 -  6) =      3.49951  eV     1   --> A              
     e(  7 -  7) =      3.59456  eV     1   --> A              
     e(  8 -  8) =      5.13546  eV     1   --> A              
     e(  9 -  9) =      6.31062  eV     1   --> A              
     e( 10 - 10) =      6.38554  eV     1   --> A              
     e( 11 - 11) =      6.88370  eV     1   --> A              
     e( 12 - 12) =      9.10060  eV     1   --> A              
     e( 13 - 13) =      9.49425  eV     1   --> A              
     e( 14 - 14) =     12.68498  eV     1   --> A              
     e( 15 - 15) =     12.96408  eV     1   --> A              
     e( 16 - 16) =     14.92058  eV     1   --> A              
     e( 17 - 17) =     15.70478  eV     1   --> A              
     e( 18 - 18) =     17.43692  eV     1   --> A              
     e( 19 - 19) =     18.54849  eV     1   --> A              
     e( 20 - 20) =     19.21761  eV     1   --> A              

 **************************************************************************

 **************************************************************************

                    xk=(   0.12500,  -0.07217,   0.00000  )

     Band symmetry, C_1 (1)     point group:

     e(  1 -  1) =     -7.29981  eV     1   --> A              
     e(  2 -  2) =     -5.13900  eV     1   --> A              
     e(  3 -  3) =      1.08284  eV     1   --> A              
     e(  4 -  4) =      1.14255  eV     1   --> A              
     e(  5 -  5) =      1.20516  eV     1   --> A              
     e(  6 -  6) =      3.38424  eV     1   --> A              
     e(  7 -  7) =      3.55185  eV     1   --> A              
     e(  8 -  8) =      4.99430  eV     1   --> A              
     e(  9 -  9) =      6.28910  eV     1   --> A              
     e( 10 - 10) =      6.38772  eV     1   --> A              
     e( 11 - 11) =      6.90710  eV     1   --> A              
     e( 12 - 12) =      8.91066  eV     1   --> A              
     e( 13 - 13) =      9.44441  eV     1   --> A              
     e( 14 - 14) =     12.93087  eV     1   --> A              
     e( 15 - 15) =     13.17088  eV     1   --> A              
     e( 16 - 16) =     14.80167  eV     1   --> A              
     e( 17 - 17) =     15.90012  eV     1   --> A              
     e( 18 - 18) =     17.30215  eV     1   --> A              
     e( 19 - 19) =     18.23962  eV     1   --> A              
     e( 20 - 20) =     18.96799  eV     1   --> A              

 **************************************************************************

 **************************************************************************

                    xk=(   0.15000,  -0.08660,   0.00000  )

     Band symmetry, C_1 (1)     point group:

     e(  1 -  1) =     -7.21849  eV     1   --> A              
     e(  2 -  2) =     -5.16245  eV     1   --> A              
     e(  3 -  3) =      1.10938  eV     1   --> A              
     e(  4 -  4) =      1.18976  eV     1   --> A              
     e(  5 -  5) =      1.29199  eV     1   --> A              
     e(  6 -  6) =      3.23769  eV     1   --> A              
     e(  7 -  7) =      3.50855  eV     1   --> A              
     e(  8 -  8) =      4.85645  eV     1   --> A              
     e(  9 -  9) =      6.26109  eV     1   --> A              
     e( 10 - 10) =      6.37699  eV     1   --> A              
     e( 11 - 11) =      6.90469  eV     1   --> A              
     e( 12 - 12) =      8.74574  eV     1   --> A              
     e( 13 - 13) =      9.39921  eV     1   --> A              
     e( 14 - 14) =     13.19221  eV     1   --> A              
     e( 15 - 15) =     13.30853  eV     1   --> A              
     e( 16 - 16) =     14.76471  eV     1   --> A              
     e( 17 - 17) =     16.11469  eV     1   --> A              
     e( 18 - 18) =     17.11495  eV     1   --> A              
     e( 19 - 19) =     17.95261  eV     1   --> A              
     e( 20 - 20) =     18.78000  eV     1   --> A              

 **************************************************************************

 **************************************************************************

                    xk=(   0.17500,  -0.10104,   0.00000  )

     Band symmetry, C_1 (1)     point group:

     e(  1 -  1) =     -7.12460  eV     1   --> A              
     e(  2 -  2) =     -5.18877  eV     1   --> A              
     e(  3 -  3) =      1.14000  eV     1   --> A              
     e(  4 -  4) =      1.24178  eV     1   --> A              
     e(  5 -  5) =      1.39286  eV     1   --> A              
     e(  6 -  6) =      3.06147  eV     1   --> A              
     e(  7 -  7) =      3.46872  eV     1   --> A              
     e(  8 -  8) =      4.73231  eV     1   --> A              
     e(  9 -  9) =      6.22305  eV     1   --> A              
     e( 10 - 10) =      6.34831  eV     1   --> A              
     e( 11 - 11) =      6.86105  eV     1   --> A              
     e( 12 - 12) =      8.62646  eV     1   --> A              
     e( 13 - 13) =      9.36419  eV     1   --> A              
     e( 14 - 14) =     13.28290  eV     1   --> A              
     e( 15 - 15) =     13.50372  eV     1   --> A              
     e( 16 - 16) =     14.85204  eV     1   --> A              
     e( 17 - 17) =     16.33018  eV     1   --> A              
     e( 18 - 18) =     16.88369  eV     1   --> A              
     e( 19 - 19) =     17.70933  eV     1   --> A              
     e( 20 - 20) =     18.60584  eV     1   --> A              

 **************************************************************************

 **************************************************************************

                    xk=(   0.20000,  -0.11547,   0.00001  )

     Band symmetry, C_1 (1)     point group:

     e(  1 -  1) =     -7.01934  eV     1   --> A              
     e(  2 -  2) =     -5.21731  eV     1   --> A              
     e(  3 -  3) =      1.17294  eV     1   --> A              
     e(  4 -  4) =      1.29661  eV     1   --> A              
     e(  5 -  5) =      1.50637  eV     1   --> A              
     e(  6 -  6) =      2.86223  eV     1   --> A              
     e(  7 -  7) =      3.43639  eV     1   --> A              
     e(  8 -  8) =      4.62727  eV     1   --> A              
     e(  9 -  9) =      6.16958  eV     1   --> A              
     e( 10 - 10) =      6.29793  eV     1   --> A              
     e( 11 - 11) =      6.76892  eV     1   --> A              
     e( 12 - 12) =      8.56432  eV     1   --> A              
     e( 13 - 13) =      9.34326  eV     1   --> A              
     e( 14 - 14) =     13.18232  eV     1   --> A              
     e( 15 - 15) =     13.77903  eV     1   --> A              
     e( 16 - 16) =     15.03849  eV     1   --> A              
     e( 17 - 17) =     16.51870  eV     1   --> A              
     e( 18 - 18) =     16.63349  eV     1   --> A              
     e( 19 - 19) =     17.52465  eV     1   --> A              
     e( 20 - 20) =     18.48022  eV     1   --> A              

 **************************************************************************

 **************************************************************************

                    xk=(   0.22500,  -0.12990,   0.00001  )

     Band symmetry, C_1 (1)     point group:

     e(  1 -  1) =     -6.90422  eV     1   --> A              
     e(  2 -  2) =     -5.24740  eV     1   --> A              
     e(  3 -  3) =      1.20433  eV     1   --> A              
     e(  4 -  4) =      1.35196  eV     1   --> A              
     e(  5 -  5) =      1.63009  eV     1   --> A              
     e(  6 -  6) =      2.65262  eV     1   --> A              
     e(  7 -  7) =      3.41552  eV     1   --> A              
     e(  8 -  8) =      4.54226  eV     1   --> A              
     e(  9 -  9) =      6.09284  eV     1   --> A              
     e( 10 - 10) =      6.22392  eV     1   --> A              
     e( 11 - 11) =      6.63627  eV     1   --> A              
     e( 12 - 12) =      8.55641  eV     1   --> A              
     e( 13 - 13) =      9.33820  eV     1   --> A              
     e( 14 - 14) =     13.02284  eV     1   --> A              
     e( 15 - 15) =     14.03469  eV     1   --> A              
     e( 16 - 16) =     15.25391  eV     1   --> A              
     e( 17 - 17) =     16.40718  eV     1   --> A              
     e( 18 - 18) =     16.64335  eV     1   --> A              
     e( 19 - 19) =     17.40350  eV     1   --> A              
     e( 20 - 20) =     18.45342  eV     1   --> A              

 **************************************************************************

 **************************************************************************

                    xk=(   0.25000,  -0.14434,   0.00001  )

     Band symmetry, C_1 (1)     point group:

     e(  1 -  1) =     -6.78104  eV     1   --> A              
     e(  2 -  2) =     -5.27834  eV     1   --> A              
     e(  3 -  3) =      1.22610  eV     1   --> A              
     e(  4 -  4) =      1.40536  eV     1   --> A              
     e(  5 -  5) =      1.75884  eV     1   --> A              
     e(  6 -  6) =      2.45337  eV     1   --> A              
     e(  7 -  7) =      3.40983  eV     1   --> A              
     e(  8 -  8) =      4.47549  eV     1   --> A              
     e(  9 -  9) =      5.98302  eV     1   --> A              
     e( 10 - 10) =      6.12629  eV     1   --> A              
     e( 11 - 11) =      6.48327  eV     1   --> A              
     e( 12 - 12) =      8.58892  eV     1   --> A              
     e( 13 - 13) =      9.34869  eV     1   --> A              
     e( 14 - 14) =     12.84906  eV     1   --> A              
     e( 15 - 15) =     14.23793  eV     1   --> A              
     e( 16 - 16) =     15.42033  eV     1   --> A              
     e( 17 - 17) =     16.27299  eV     1   --> A              
     e( 18 - 18) =     16.67692  eV     1   --> A              
     e( 19 - 19) =     17.34473  eV     1   --> A              
     e( 20 - 20) =     18.51308  eV     1   --> A              

 **************************************************************************

 **************************************************************************

                    xk=(   0.27500,  -0.15877,   0.00001  )

     Band symmetry, C_1 (1)     point group:

     e(  1 -  1) =     -6.65196  eV     1   --> A              
     e(  2 -  2) =     -5.30942  eV     1   --> A              
     e(  3 -  3) =      1.22271  eV     1   --> A              
     e(  4 -  4) =      1.45446  eV     1   --> A              
     e(  5 -  5) =      1.87829  eV     1   --> A              
     e(  6 -  6) =      2.30136  eV     1   --> A              
     e(  7 -  7) =      3.42256  eV     1   --> A              
     e(  8 -  8) =      4.42432  eV     1   --> A              
     e(  9 -  9) =      5.83346  eV     1   --> A              
     e( 10 - 10) =      6.00667  eV     1   --> A              
     e( 11 - 11) =      6.32962  eV     1   --> A              
     e( 12 - 12) =      8.64565  eV     1   --> A              
     e( 13 - 13) =      9.37259  eV     1   --> A              
     e( 14 - 14) =     12.68549  eV     1   --> A              
     e( 15 - 15) =     14.35149  eV     1   --> A              
     e( 16 - 16) =     15.47612  eV     1   --> A              
     e( 17 - 17) =     16.30744  eV     1   --> A              
     e( 18 - 18) =     16.62723  eV     1   --> A              
     e( 19 - 19) =     17.33969  eV     1   --> A              
     e( 20 - 20) =     18.47664  eV     1   --> A              

 **************************************************************************

 **************************************************************************

                    xk=(   0.30000,  -0.17321,   0.00001  )

     Band symmetry, C_1 (1)     point group:

     e(  1 -  1) =     -6.51957  eV     1   --> A              
     e(  2 -  2) =     -5.33997  eV     1   --> A              
     e(  3 -  3) =      1.17181  eV     1   --> A              
     e(  4 -  4) =      1.49726  eV     1   --> A              
     e(  5 -  5) =      1.95097  eV     1   --> A              
     e(  6 -  6) =      2.26187  eV     1   --> A              
     e(  7 -  7) =      3.45621  eV     1   --> A              
     e(  8 -  8) =      4.38629  eV     1   --> A              
     e(  9 -  9) =      5.64914  eV     1   --> A              
     e( 10 - 10) =      5.86780  eV     1   --> A              
     e( 11 - 11) =      6.18177  eV     1   --> A              
     e( 12 - 12) =      8.71334  eV     1   --> A              
     e( 13 - 13) =      9.40664  eV     1   --> A              
     e( 14 - 14) =     12.54574  eV     1   --> A              
     e( 15 - 15) =     14.35048  eV     1   --> A              
     e( 16 - 16) =     15.46309  eV     1   --> A              
     e( 17 - 17) =     16.48890  eV     1   --> A              
     e( 18 - 18) =     16.52637  eV     1   --> A              
     e( 19 - 19) =     17.36968  eV     1   --> A              
     e( 20 - 20) =     18.42362  eV     1   --> A              

 **************************************************************************

 **************************************************************************

                    xk=(   0.32500,  -0.18764,   0.00001  )

     Band symmetry, C_1 (1)     point group:

     e(  1 -  1) =     -6.38690  eV     1   --> A              
     e(  2 -  2) =     -5.36938  eV     1   --> A              
     e(  3 -  3) =      1.06147  eV     1   --> A              
     e(  4 -  4) =      1.53249  eV     1   --> A              
     e(  5 -  5) =      1.97721  eV     1   --> A              
     e(  6 -  6) =      2.34977  eV     1   --> A              
     e(  7 -  7) =      3.51221  eV     1   --> A              
     e(  8 -  8) =      4.35976  eV     1   --> A              
     e(  9 -  9) =      5.44563  eV     1   --> A              
     e( 10 - 10) =      5.71296  eV     1   --> A              
     e( 11 - 11) =      6.03388  eV     1   --> A              
     e( 12 - 12) =      8.78282  eV     1   --> A              
     e( 13 - 13) =      9.44709  eV     1   --> A              
     e( 14 - 14) =     12.43658  eV     1   --> A              
     e( 15 - 15) =     14.25128  eV     1   --> A              
     e( 16 - 16) =     15.44767  eV     1   --> A              
     e( 17 - 17) =     16.40390  eV     1   --> A              
     e( 18 - 18) =     16.74207  eV     1   --> A              
     e( 19 - 19) =     17.41243  eV     1   --> A              
     e( 20 - 20) =     18.35537  eV     1   --> A              

 **************************************************************************

 **************************************************************************

                    xk=(   0.34999,  -0.20207,   0.00001  )

     Band symmetry, C_1 (1)     point group:

     e(  1 -  1) =     -6.25746  eV     1   --> A              
     e(  2 -  2) =     -5.39709  eV     1   --> A              
     e(  3 -  3) =      0.90795  eV     1   --> A              
     e(  4 -  4) =      1.55978  eV     1   --> A              
     e(  5 -  5) =      2.01995  eV     1   --> A              
     e(  6 -  6) =      2.48650  eV     1   --> A              
     e(  7 -  7) =      3.59081  eV     1   --> A              
     e(  8 -  8) =      4.34414  eV     1   --> A              
     e(  9 -  9) =      5.24000  eV     1   --> A              
     e( 10 - 10) =      5.54559  eV     1   --> A              
     e( 11 - 11) =      5.87839  eV     1   --> A              
     e( 12 - 12) =      8.84843  eV     1   --> A              
     e( 13 - 13) =      9.49017  eV     1   --> A              
     e( 14 - 14) =     12.35965  eV     1   --> A              
     e( 15 - 15) =     14.09861  eV     1   --> A              
     e( 16 - 16) =     15.43935  eV     1   --> A              
     e( 17 - 17) =     16.27877  eV     1   --> A              
     e( 18 - 18) =     17.01759  eV     1   --> A              
     e( 19 - 19) =     17.45708  eV     1   --> A              
     e( 20 - 20) =     18.28234  eV     1   --> A              

 **************************************************************************

 **************************************************************************

                    xk=(   0.37499,  -0.21651,   0.00001  )

     Band symmetry, C_1 (1)     point group:

     e(  1 -  1) =     -6.13521  eV     1   --> A              
     e(  2 -  2) =     -5.42266  eV     1   --> A              
     e(  3 -  3) =      0.73970  eV     1   --> A              
     e(  4 -  4) =      1.57961  eV     1   --> A              
     e(  5 -  5) =      2.09092  eV     1   --> A              
     e(  6 -  6) =      2.62900  eV     1   --> A              
     e(  7 -  7) =      3.69104  eV     1   --> A              
     e(  8 -  8) =      4.34031  eV     1   --> A              
     e(  9 -  9) =      5.04684  eV     1   --> A              
     e( 10 - 10) =      5.36900  eV     1   --> A              
     e( 11 - 11) =      5.71162  eV     1   --> A              
     e( 12 - 12) =      8.90703  eV     1   --> A              
     e( 13 - 13) =      9.53244  eV     1   --> A              
     e( 14 - 14) =     12.31246  eV     1   --> A              
     e( 15 - 15) =     13.93093  eV     1   --> A              
     e( 16 - 16) =     15.43280  eV     1   --> A              
     e( 17 - 17) =     16.16212  eV     1   --> A              
     e( 18 - 18) =     17.24997  eV     1   --> A              
     e( 19 - 19) =     17.53557  eV     1   --> A              
     e( 20 - 20) =     18.21596  eV     1   --> A              

 **************************************************************************

 **************************************************************************

                    xk=(   0.39999,  -0.23094,   0.00001  )

     Band symmetry, C_1 (1)     point group:

     e(  1 -  1) =     -6.02451  eV     1   --> A              
     e(  2 -  2) =     -5.44575  eV     1   --> A              
     e(  3 -  3) =      0.57916  eV     1   --> A              
     e(  4 -  4) =      1.59310  eV     1   --> A              
     e(  5 -  5) =      2.17983  eV     1   --> A              
     e(  6 -  6) =      2.75803  eV     1   --> A              
     e(  7 -  7) =      3.81103  eV     1   --> A              
     e(  8 -  8) =      4.35080  eV     1   --> A              
     e(  9 -  9) =      4.87893  eV     1   --> A              
     e( 10 - 10) =      5.18634  eV     1   --> A              
     e( 11 - 11) =      5.53421  eV     1   --> A              
     e( 12 - 12) =      8.95694  eV     1   --> A              
     e( 13 - 13) =      9.57096  eV     1   --> A              
     e( 14 - 14) =     12.28945  eV     1   --> A              
     e( 15 - 15) =     13.77194  eV     1   --> A              
     e( 16 - 16) =     15.42638  eV     1   --> A              
     e( 17 - 17) =     16.06062  eV     1   --> A              
     e( 18 - 18) =     17.33705  eV     1   --> A              
     e( 19 - 19) =     17.72893  eV     1   --> A              
     e( 20 - 20) =     18.16413  eV     1   --> A              

 **************************************************************************

 **************************************************************************

                    xk=(   0.42499,  -0.24538,   0.00001  )

     Band symmetry, C_1 (1)     point group:

     e(  1 -  1) =     -5.92998  eV     1   --> A              
     e(  2 -  2) =     -5.46598  eV     1   --> A              
     e(  3 -  3) =      0.44121  eV     1   --> A              
     e(  4 -  4) =      1.60164  eV     1   --> A              
     e(  5 -  5) =      2.27503  eV     1   --> A              
     e(  6 -  6) =      2.85925  eV     1   --> A              
     e(  7 -  7) =      3.94820  eV     1   --> A              
     e(  8 -  8) =      4.37870  eV     1   --> A              
     e(  9 -  9) =      4.74867  eV     1   --> A              
     e( 10 - 10) =      5.00059  eV     1   --> A              
     e( 11 - 11) =      5.35056  eV     1   --> A              
     e( 12 - 12) =      8.99715  eV     1   --> A              
     e( 13 - 13) =      9.60334  eV     1   --> A              
     e( 14 - 14) =     12.28332  eV     1   --> A              
     e( 15 - 15) =     13.63590  eV     1   --> A              
     e( 16 - 16) =     15.42070  eV     1   --> A              
     e( 17 - 17) =     15.97840  eV     1   --> A              
     e( 18 - 18) =     17.33893  eV     1   --> A              
     e( 19 - 19) =     17.95842  eV     1   --> A              
     e( 20 - 20) =     18.13360  eV     1   --> A              

 **************************************************************************

 **************************************************************************

                    xk=(   0.44999,  -0.25981,   0.00001  )

     Band symmetry, C_1 (1)     point group:

     e(  1 -  1) =     -5.85647  eV     1   --> A              
     e(  2 -  2) =     -5.48270  eV     1   --> A              
     e(  3 -  3) =      0.33588  eV     1   --> A              
     e(  4 -  4) =      1.60660  eV     1   --> A              
     e(  5 -  5) =      2.36376  eV     1   --> A              
     e(  6 -  6) =      2.92337  eV     1   --> A              
     e(  7 -  7) =      4.09941  eV     1   --> A              
     e(  8 -  8) =      4.42072  eV     1   --> A              
     e(  9 -  9) =      4.67099  eV     1   --> A              
     e( 10 - 10) =      4.81490  eV     1   --> A              
     e( 11 - 11) =      5.16925  eV     1   --> A              
     e( 12 - 12) =      9.02677  eV     1   --> A              
     e( 13 - 13) =      9.62775  eV     1   --> A              
     e( 14 - 14) =     12.28627  eV     1   --> A              
     e( 15 - 15) =     13.53213  eV     1   --> A              
     e( 16 - 16) =     15.41645  eV     1   --> A              
     e( 17 - 17) =     15.91808  eV     1   --> A              
     e( 18 - 18) =     17.32148  eV     1   --> A              
     e( 19 - 19) =     18.07622  eV     1   --> A              
     e( 20 - 20) =     18.19287  eV     1   --> A              

 **************************************************************************

 **************************************************************************

                    xk=(   0.47499,  -0.27424,   0.00001  )

     Band symmetry, C_1 (1)     point group:

     e(  1 -  1) =     -5.80904  eV     1   --> A              
     e(  2 -  2) =     -5.49440  eV     1   --> A              
     e(  3 -  3) =      0.26996  eV     1   --> A              
     e(  4 -  4) =      1.60910  eV     1   --> A              
     e(  5 -  5) =      2.42977  eV     1   --> A              
     e(  6 -  6) =      2.95231  eV     1   --> A              
     e(  7 -  7) =      4.25969  eV     1   --> A              
     e(  8 -  8) =      4.45290  eV     1   --> A              
     e(  9 -  9) =      4.63404  eV     1   --> A              
     e( 10 - 10) =      4.66660  eV     1   --> A              
     e( 11 - 11) =      5.00776  eV     1   --> A              
     e( 12 - 12) =      9.04498  eV     1   --> A              
     e( 13 - 13) =      9.64290  eV     1   --> A              
     e( 14 - 14) =     12.29136  eV     1   --> A              
     e( 15 - 15) =     13.46711  eV     1   --> A              
     e( 16 - 16) =     15.41392  eV     1   --> A              
     e( 17 - 17) =     15.88129  eV     1   --> A              
     e( 18 - 18) =     17.30520  eV     1   --> A              
     e( 19 - 19) =     18.07525  eV     1   --> A              
     e( 20 - 20) =     18.31408  eV     1   --> A              

 **************************************************************************

 **************************************************************************

                    xk=(   0.49999,  -0.28868,   0.00001  )

     point group C_i (-1)   
     there are  2 classes
     the character table:

       E     i    
A_g    1.00  1.00
A_u    1.00 -1.00

     the symmetry operations in each class and the name of the first element:

     E        1
                                                                 
     i        2
                                                                 

     Band symmetry, C_i (-1)    point group:

     e(  1 -  1) =     -5.79249  eV     1   --> A_g            
     e(  2 -  2) =     -5.49876  eV     1   --> A_u            
     e(  3 -  3) =      0.24752  eV     1   --> A_g            
     e(  4 -  4) =      1.60985  eV     1   --> A_g            
     e(  5 -  5) =      2.45482  eV     1   --> A_g            
     e(  6 -  6) =      2.95910  eV     1   --> A_u            
     e(  7 -  7) =      4.38471  eV     1   --> A_g            
     e(  8 -  8) =      4.45980  eV     1   --> A_g            
     e(  9 -  9) =      4.50219  eV     1   --> A_u            
     e( 10 - 10) =      4.69820  eV     1   --> A_u            
     e( 11 - 11) =      4.92444  eV     1   --> A_g            
     e( 12 - 12) =      9.05114  eV     1   --> A_g            
     e( 13 - 13) =      9.64803  eV     1   --> A_g            
     e( 14 - 14) =     12.29365  eV     1   --> A_g            
     e( 15 - 15) =     13.44495  eV     1   --> A_u            
     e( 16 - 16) =     15.41309  eV     1   --> A_g            
     e( 17 - 17) =     15.86893  eV     1   --> A_u            
     e( 18 - 18) =     17.29887  eV     1   --> A_u            
     e( 19 - 19) =     18.07266  eV     1   --> A_u            
     e( 20 - 20) =     18.35925  eV     1   --> A_g            

 **************************************************************************

 **************************************************************************

                    xk=(   0.51666,  -0.25981,   0.00001  )

     point group C_1 (1)    
     there are  1 classes
     the character table:

       E    
A      1.00

     the symmetry operations in each class and the name of the first element:

     E        1
                                                                 

     Band symmetry, C_1 (1)     point group:

     e(  1 -  1) =     -5.78700  eV     1   --> A              
     e(  2 -  2) =     -5.49945  eV     1   --> A              
     e(  3 -  3) =      0.25915  eV     1   --> A              
     e(  4 -  4) =      1.60211  eV     1   --> A              
     e(  5 -  5) =      2.45714  eV     1   --> A              
     e(  6 -  6) =      2.96666  eV     1   --> A              
     e(  7 -  7) =      4.30634  eV     1   --> A              
     e(  8 -  8) =      4.36642  eV     1   --> A              
     e(  9 -  9) =      4.46366  eV     1   --> A              
     e( 10 - 10) =      4.73778  eV     1   --> A              
     e( 11 - 11) =      5.08976  eV     1   --> A              
     e( 12 - 12) =      9.04016  eV     1   --> A              
     e( 13 - 13) =      9.59250  eV     1   --> A              
     e( 14 - 14) =     12.31365  eV     1   --> A              
     e( 15 - 15) =     13.52174  eV     1   --> A              
     e( 16 - 16) =     15.32995  eV     1   --> A              
     e( 17 - 17) =     15.96006  eV     1   --> A              
     e( 18 - 18) =     17.30601  eV     1   --> A              
     e( 19 - 19) =     18.07535  eV     1   --> A              
     e( 20 - 20) =     18.29588  eV     1   --> A              

 **************************************************************************

 **************************************************************************

                    xk=(   0.53333,  -0.23094,   0.00001  )

     Band symmetry, C_1 (1)     point group:

     e(  1 -  1) =     -5.77087  eV     1   --> A              
     e(  2 -  2) =     -5.50148  eV     1   --> A              
     e(  3 -  3) =      0.29385  eV     1   --> A              
     e(  4 -  4) =      1.58067  eV     1   --> A              
     e(  5 -  5) =      2.46241  eV     1   --> A              
     e(  6 -  6) =      2.98672  eV     1   --> A              
     e(  7 -  7) =      3.99210  eV     1   --> A              
     e(  8 -  8) =      4.33361  eV     1   --> A              
     e(  9 -  9) =      4.44317  eV     1   --> A              
     e( 10 - 10) =      4.83419  eV     1   --> A              
     e( 11 - 11) =      5.34675  eV     1   --> A              
     e( 12 - 12) =      9.00742  eV     1   --> A              
     e( 13 - 13) =      9.44082  eV     1   --> A              
     e( 14 - 14) =     12.36990  eV     1   --> A              
     e( 15 - 15) =     13.73732  eV     1   --> A              
     e( 16 - 16) =     15.18137  eV     1   --> A              
     e( 17 - 17) =     16.13507  eV     1   --> A              
     e( 18 - 18) =     17.32626  eV     1   --> A              
     e( 19 - 19) =     18.08186  eV     1   --> A              
     e( 20 - 20) =     18.12573  eV     1   --> A              

 **************************************************************************

 **************************************************************************

                    xk=(   0.54999,  -0.20207,   0.00001  )

     Band symmetry, C_1 (1)     point group:

     e(  1 -  1) =     -5.74512  eV     1   --> A              
     e(  2 -  2) =     -5.50469  eV     1   --> A              
     e(  3 -  3) =      0.35108  eV     1   --> A              
     e(  4 -  4) =      1.55010  eV     1   --> A              
     e(  5 -  5) =      2.46429  eV     1   --> A              
     e(  6 -  6) =      3.01283  eV     1   --> A              
     e(  7 -  7) =      3.66454  eV     1   --> A              
     e(  8 -  8) =      4.31240  eV     1   --> A              
     e(  9 -  9) =      4.41124  eV     1   --> A              
     e( 10 - 10) =      4.95995  eV     1   --> A              
     e( 11 - 11) =      5.58544  eV     1   --> A              
     e( 12 - 12) =      8.95359  eV     1   --> A              
     e( 13 - 13) =      9.22719  eV     1   --> A              
     e( 14 - 14) =     12.45119  eV     1   --> A              
     e( 15 - 15) =     14.05794  eV     1   --> A              
     e( 16 - 16) =     15.05381  eV     1   --> A              
     e( 17 - 17) =     16.31474  eV     1   --> A              
     e( 18 - 18) =     17.35604  eV     1   --> A              
     e( 19 - 19) =     17.89077  eV     1   --> A              
     e( 20 - 20) =     18.08727  eV     1   --> A              

 **************************************************************************

 **************************************************************************

                    xk=(   0.56666,  -0.17321,   0.00001  )

     Band symmetry, C_1 (1)     point group:

     e(  1 -  1) =     -5.71147  eV     1   --> A              
     e(  2 -  2) =     -5.50879  eV     1   --> A              
     e(  3 -  3) =      0.42986  eV     1   --> A              
     e(  4 -  4) =      1.51596  eV     1   --> A              
     e(  5 -  5) =      2.44641  eV     1   --> A              
     e(  6 -  6) =      3.03784  eV     1   --> A              
     e(  7 -  7) =      3.36223  eV     1   --> A              
     e(  8 -  8) =      4.31262  eV     1   --> A              
     e(  9 -  9) =      4.36818  eV     1   --> A              
     e( 10 - 10) =      5.10121  eV     1   --> A              
     e( 11 - 11) =      5.78632  eV     1   --> A              
     e( 12 - 12) =      8.88029  eV     1   --> A              
     e( 13 - 13) =      8.98776  eV     1   --> A              
     e( 14 - 14) =     12.53978  eV     1   --> A              
     e( 15 - 15) =     14.44796  eV     1   --> A              
     e( 16 - 16) =     14.98376  eV     1   --> A              
     e( 17 - 17) =     16.47319  eV     1   --> A              
     e( 18 - 18) =     17.38904  eV     1   --> A              
     e( 19 - 19) =     17.63027  eV     1   --> A              
     e( 20 - 20) =     18.08291  eV     1   --> A              

 **************************************************************************

 **************************************************************************

                    xk=(   0.58332,  -0.14434,   0.00001  )

     Band symmetry, C_1 (1)     point group:

     e(  1 -  1) =     -5.67233  eV     1   --> A              
     e(  2 -  2) =     -5.51343  eV     1   --> A              
     e(  3 -  3) =      0.52867  eV     1   --> A              
     e(  4 -  4) =      1.48334  eV     1   --> A              
     e(  5 -  5) =      2.37305  eV     1   --> A              
     e(  6 -  6) =      3.05690  eV     1   --> A              
     e(  7 -  7) =      3.13135  eV     1   --> A              
     e(  8 -  8) =      4.31562  eV     1   --> A              
     e(  9 -  9) =      4.33402  eV     1   --> A              
     e( 10 - 10) =      5.24977  eV     1   --> A              
     e( 11 - 11) =      5.94147  eV     1   --> A              
     e( 12 - 12) =      8.75294  eV     1   --> A              
     e( 13 - 13) =      8.79055  eV     1   --> A              
     e( 14 - 14) =     12.61574  eV     1   --> A              
     e( 15 - 15) =     14.87724  eV     1   --> A              
     e( 16 - 16) =     14.99194  eV     1   --> A              
     e( 17 - 17) =     16.59797  eV     1   --> A              
     e( 18 - 18) =     17.37503  eV     1   --> A              
     e( 19 - 19) =     17.41609  eV     1   --> A              
     e( 20 - 20) =     18.05658  eV     1   --> A              

 **************************************************************************

 **************************************************************************

                    xk=(   0.59999,  -0.11547,   0.00001  )

     Band symmetry, C_1 (1)     point group:

     e(  1 -  1) =     -5.63087  eV     1   --> A              
     e(  2 -  2) =     -5.51814  eV     1   --> A              
     e(  3 -  3) =      0.64525  eV     1   --> A              
     e(  4 -  4) =      1.45617  eV     1   --> A              
     e(  5 -  5) =      2.20891  eV     1   --> A              
     e(  6 -  6) =      3.01469  eV     1   --> A              
     e(  7 -  7) =      3.06870  eV     1   --> A              
     e(  8 -  8) =      4.25628  eV     1   --> A              
     e(  9 -  9) =      4.36984  eV     1   --> A              
     e( 10 - 10) =      5.39927  eV     1   --> A              
     e( 11 - 11) =      6.04624  eV     1   --> A              
     e( 12 - 12) =      8.54713  eV     1   --> A              
     e( 13 - 13) =      8.68926  eV     1   --> A              
     e( 14 - 14) =     12.66519  eV     1   --> A              
     e( 15 - 15) =     15.08179  eV     1   --> A              
     e( 16 - 16) =     15.32010  eV     1   --> A              
     e( 17 - 17) =     16.67832  eV     1   --> A              
     e( 18 - 18) =     17.15481  eV     1   --> A              
     e( 19 - 19) =     17.42586  eV     1   --> A              
     e( 20 - 20) =     17.99499  eV     1   --> A              

 **************************************************************************

 **************************************************************************

                    xk=(   0.61666,  -0.08660,   0.00000  )

     Band symmetry, C_1 (1)     point group:

     e(  1 -  1) =     -5.59093  eV     1   --> A              
     e(  2 -  2) =     -5.52240  eV     1   --> A              
     e(  3 -  3) =      0.77609  eV     1   --> A              
     e(  4 -  4) =      1.43702  eV     1   --> A              
     e(  5 -  5) =      1.98038  eV     1   --> A              
     e(  6 -  6) =      2.99180  eV     1   --> A              
     e(  7 -  7) =      3.07441  eV     1   --> A              
     e(  8 -  8) =      4.19437  eV     1   --> A              
     e(  9 -  9) =      4.40961  eV     1   --> A              
     e( 10 - 10) =      5.54449  eV     1   --> A              
     e( 11 - 11) =      6.09774  eV     1   --> A              
     e( 12 - 12) =      8.38985  eV     1   --> A              
     e( 13 - 13) =      8.58313  eV     1   --> A              
     e( 14 - 14) =     12.68678  eV     1   --> A              
     e( 15 - 15) =     15.23176  eV     1   --> A              
     e( 16 - 16) =     15.75116  eV     1   --> A              
     e( 17 - 17) =     16.69275  eV     1   --> A              
     e( 18 - 18) =     17.01529  eV     1   --> A              
     e( 19 - 19) =     17.40824  eV     1   --> A              
     e( 20 - 20) =     17.88881  eV     1   --> A              

 **************************************************************************

 **************************************************************************

                    xk=(   0.63332,  -0.05774,   0.00000  )

     Band symmetry, C_1 (1)     point group:

     e(  1 -  1) =     -5.55697  eV     1   --> A              
     e(  2 -  2) =     -5.52562  eV     1   --> A              
     e(  3 -  3) =      0.91503  eV     1   --> A              
     e(  4 -  4) =      1.42727  eV     1   --> A              
     e(  5 -  5) =      1.74266  eV     1   --> A              
     e(  6 -  6) =      3.01279  eV     1   --> A              
     e(  7 -  7) =      3.07581  eV     1   --> A              
     e(  8 -  8) =      4.13642  eV     1   --> A              
     e(  9 -  9) =      4.44253  eV     1   --> A              
     e( 10 - 10) =      5.68221  eV     1   --> A              
     e( 11 - 11) =      6.09490  eV     1   --> A              
     e( 12 - 12) =      8.29513  eV     1   --> A              
     e( 13 - 13) =      8.47992  eV     1   --> A              
     e( 14 - 14) =     12.68934  eV     1   --> A              
     e( 15 - 15) =     15.39436  eV     1   --> A              
     e( 16 - 16) =     16.13873  eV     1   --> A              
     e( 17 - 17) =     16.63793  eV     1   --> A              
     e( 18 - 18) =     16.99448  eV     1   --> A              
     e( 19 - 19) =     17.36233  eV     1   --> A              
     e( 20 - 20) =     17.73730  eV     1   --> A              

 **************************************************************************

 **************************************************************************

                    xk=(   0.64999,  -0.02887,   0.00000  )

     Band symmetry, C_1 (1)     point group:

     e(  1 -  1) =     -5.53384  eV     1   --> A              
     e(  2 -  2) =     -5.52718  eV     1   --> A              
     e(  3 -  3) =      1.04680  eV     1   --> A              
     e(  4 -  4) =      1.42722  eV     1   --> A              
     e(  5 -  5) =      1.53872  eV     1   --> A              
     e(  6 -  6) =      3.04479  eV     1   --> A              
     e(  7 -  7) =      3.07357  eV     1   --> A              
     e(  8 -  8) =      4.09219  eV     1   --> A              
     e(  9 -  9) =      4.46140  eV     1   --> A              
     e( 10 - 10) =      5.81219  eV     1   --> A              
     e( 11 - 11) =      6.03941  eV     1   --> A              
     e( 12 - 12) =      8.26931  eV     1   --> A              
     e( 13 - 13) =      8.38687  eV     1   --> A              
     e( 14 - 14) =     12.68442  eV     1   --> A              
     e( 15 - 15) =     15.50965  eV     1   --> A              
     e( 16 - 16) =     16.43195  eV     1   --> A              
     e( 17 - 17) =     16.58445  eV     1   --> A              
     e( 18 - 18) =     17.06167  eV     1   --> A              
     e( 19 - 19) =     17.30500  eV     1   --> A              
     e( 20 - 20) =     17.55607  eV     1   --> A              

 **************************************************************************

 **************************************************************************

                    xk=(   0.66666,   0.00000,   0.00000  )

     point group C_2  (2)   
     there are  2 classes
     the character table:

       E     C2   
A      1.00  1.00
B      1.00 -1.00

     the symmetry operations in each class and the name of the first element:

     E        1
                                                                 
     C2       2
                                                                 

     Band symmetry, C_2  (2)    point group:

     e(  1 -  2) =     -5.52651  eV     2   --> A              
     e(  1 -  2) =     -5.52651  eV     2   --> B              
     e(  3 -  3) =      1.11520  eV     1   --> A              
     e(  4 -  5) =      1.43631  eV     2   --> A              
     e(  4 -  5) =      1.43631  eV     2   --> B              
     e(  6 -  6) =      3.06623  eV     1   --> A              
     e(  7 -  7) =      3.06650  eV     1   --> B              
     e(  8 -  8) =      4.07447  eV     1   --> A              
     e(  9 -  9) =      4.46622  eV     1   --> B              
     e( 10 - 10) =      5.93680  eV     1   --> A              
     e( 11 - 11) =      5.93692  eV     1   --> B              
     e( 12 - 12) =      8.30895  eV     1   --> B              
     e( 13 - 13) =      8.30925  eV     1   --> A              
     e( 14 - 14) =     12.68129  eV     1   --> A              
     e( 15 - 15) =     15.54551  eV     1   --> A              
     e( 16 - 17) =     16.55617  eV     2   --> A              
     e( 16 - 17) =     16.55617  eV     2   --> B              
     e( 18 - 18) =     17.20318  eV     1   --> B              
     e( 19 - 19) =     17.20357  eV     1   --> A              
     e( 20 - 20) =     17.44888  eV     1   --> B              

 **************************************************************************

 **************************************************************************

                    xk=(   0.63332,   0.00000,   0.00000  )

     Band symmetry, C_2  (2)    point group:

     e(  1 -  1) =     -5.53928  eV     1   --> A              
     e(  2 -  2) =     -5.52291  eV     1   --> B              
     e(  3 -  3) =      1.05927  eV     1   --> A              
     e(  4 -  4) =      1.45321  eV     1   --> B              
     e(  5 -  5) =      1.49987  eV     1   --> A              
     e(  6 -  6) =      3.05074  eV     1   --> B              
     e(  7 -  7) =      3.06241  eV     1   --> A              
     e(  8 -  8) =      4.09544  eV     1   --> A              
     e(  9 -  9) =      4.46557  eV     1   --> B              
     e( 10 - 10) =      5.79741  eV     1   --> A              
     e( 11 - 11) =      6.05913  eV     1   --> B              
     e( 12 - 12) =      8.24870  eV     1   --> A              
     e( 13 - 13) =      8.40261  eV     1   --> B              
     e( 14 - 14) =     12.68590  eV     1   --> A              
     e( 15 - 15) =     15.52254  eV     1   --> A              
     e( 16 - 16) =     16.49806  eV     1   --> B              
     e( 17 - 17) =     16.52853  eV     1   --> A              
     e( 18 - 18) =     16.98163  eV     1   --> B              
     e( 19 - 19) =     17.40200  eV     1   --> A              
     e( 20 - 20) =     17.51354  eV     1   --> B              

 **************************************************************************

 **************************************************************************

                    xk=(   0.59999,   0.00000,   0.00000  )

     Band symmetry, C_2  (2)    point group:

     e(  1 -  1) =     -5.57555  eV     1   --> A              
     e(  2 -  2) =     -5.51607  eV     1   --> B              
     e(  3 -  3) =      0.98150  eV     1   --> A              
     e(  4 -  4) =      1.47575  eV     1   --> B              
     e(  5 -  5) =      1.62523  eV     1   --> A              
     e(  6 -  6) =      3.02253  eV     1   --> B              
     e(  7 -  7) =      3.02718  eV     1   --> A              
     e(  8 -  8) =      4.15940  eV     1   --> A              
     e(  9 -  9) =      4.47379  eV     1   --> B              
     e( 10 - 10) =      5.63554  eV     1   --> A              
     e( 11 - 11) =      6.18023  eV     1   --> B              
     e( 12 - 12) =      8.20522  eV     1   --> A              
     e( 13 - 13) =      8.53311  eV     1   --> B              
     e( 14 - 14) =     12.70170  eV     1   --> A              
     e( 15 - 15) =     15.47700  eV     1   --> A              
     e( 16 - 16) =     16.33052  eV     1   --> B              
     e( 17 - 17) =     16.48868  eV     1   --> A              
     e( 18 - 18) =     16.74206  eV     1   --> B              
     e( 19 - 19) =     17.59267  eV     1   --> B              
     e( 20 - 20) =     17.61432  eV     1   --> A              

 **************************************************************************

 **************************************************************************

                    xk=(   0.56666,   0.00000,   0.00000  )

     Band symmetry, C_2  (2)    point group:

     e(  1 -  1) =     -5.63707  eV     1   --> A              
     e(  2 -  2) =     -5.50552  eV     1   --> B              
     e(  3 -  3) =      0.93861  eV     1   --> A              
     e(  4 -  4) =      1.50096  eV     1   --> B              
     e(  5 -  5) =      1.74971  eV     1   --> A              
     e(  6 -  6) =      2.96503  eV     1   --> A              
     e(  7 -  7) =      2.97991  eV     1   --> B              
     e(  8 -  8) =      4.25837  eV     1   --> A              
     e(  9 -  9) =      4.50581  eV     1   --> B              
     e( 10 - 10) =      5.46989  eV     1   --> A              
     e( 11 - 11) =      6.29934  eV     1   --> B              
     e( 12 - 12) =      8.17763  eV     1   --> A              
     e( 13 - 13) =      8.68164  eV     1   --> B              
     e( 14 - 14) =     12.73062  eV     1   --> A              
     e( 15 - 15) =     15.43220  eV     1   --> A              
     e( 16 - 16) =     16.10708  eV     1   --> B              
     e( 17 - 17) =     16.43699  eV     1   --> A              
     e( 18 - 18) =     16.53346  eV     1   --> B              
     e( 19 - 19) =     17.61040  eV     1   --> B              
     e( 20 - 20) =     17.80332  eV     1   --> A              

 **************************************************************************

 **************************************************************************

                    xk=(   0.53333,   0.00000,   0.00000  )

     Band symmetry, C_2  (2)    point group:

     e(  1 -  1) =     -5.72363  eV     1   --> A              
     e(  2 -  2) =     -5.49099  eV     1   --> B              
     e(  3 -  3) =      0.94056  eV     1   --> A              
     e(  4 -  4) =      1.52488  eV     1   --> B              
     e(  5 -  5) =      1.85391  eV     1   --> A              
     e(  6 -  6) =      2.88587  eV     1   --> A              
     e(  7 -  7) =      2.92583  eV     1   --> B              
     e(  8 -  8) =      4.37241  eV     1   --> A              
     e(  9 -  9) =      4.57190  eV     1   --> B              
     e( 10 - 10) =      5.32569  eV     1   --> A              
     e( 11 - 11) =      6.41401  eV     1   --> B              
     e( 12 - 12) =      8.16510  eV     1   --> A              
     e( 13 - 13) =      8.82970  eV     1   --> B              
     e( 14 - 14) =     12.77389  eV     1   --> A              
     e( 15 - 15) =     15.39847  eV     1   --> A              
     e( 16 - 16) =     15.86530  eV     1   --> B              
     e( 17 - 17) =     16.36707  eV     1   --> B              
     e( 18 - 18) =     16.37536  eV     1   --> A              
     e( 19 - 19) =     17.55432  eV     1   --> B              
     e( 20 - 20) =     17.95225  eV     1   --> A              

 **************************************************************************

 **************************************************************************

                    xk=(   0.49999,   0.00000,   0.00000  )

     Band symmetry, C_2  (2)    point group:

     e(  1 -  1) =     -5.83314  eV     1   --> A              
     e(  2 -  2) =     -5.47237  eV     1   --> B              
     e(  3 -  3) =      0.98555  eV     1   --> A              
     e(  4 -  4) =      1.54250  eV     1   --> B              
     e(  5 -  5) =      1.92775  eV     1   --> A              
     e(  6 -  6) =      2.79966  eV     1   --> A              
     e(  7 -  7) =      2.86874  eV     1   --> B              
     e(  8 -  8) =      4.46771  eV     1   --> A              
     e(  9 -  9) =      4.67570  eV     1   --> B              
     e( 10 - 10) =      5.24008  eV     1   --> A              
     e( 11 - 11) =      6.52120  eV     1   --> B              
     e( 12 - 12) =      8.16792  eV     1   --> A              
     e( 13 - 13) =      8.96008  eV     1   --> B              
     e( 14 - 14) =     12.83243  eV     1   --> A              
     e( 15 - 15) =     15.37784  eV     1   --> A              
     e( 16 - 16) =     15.63646  eV     1   --> B              
     e( 17 - 17) =     16.24045  eV     1   --> B              
     e( 18 - 18) =     16.30471  eV     1   --> A              
     e( 19 - 19) =     17.43852  eV     1   --> B              
     e( 20 - 20) =     18.06265  eV     1   --> A              

 **************************************************************************

 **************************************************************************

                    xk=(   0.46666,   0.00000,   0.00000  )

     Band symmetry, C_2  (2)    point group:

     e(  1 -  1) =     -5.96196  eV     1   --> A              
     e(  2 -  2) =     -5.44972  eV     1   --> B              
     e(  3 -  3) =      1.06580  eV     1   --> A              
     e(  4 -  4) =      1.54818  eV     1   --> B              
     e(  5 -  5) =      1.96636  eV     1   --> A              
     e(  6 -  6) =      2.71457  eV     1   --> A              
     e(  7 -  7) =      2.82048  eV     1   --> B              
     e(  8 -  8) =      4.50554  eV     1   --> A              
     e(  9 -  9) =      4.81559  eV     1   --> B              
     e( 10 - 10) =      5.25337  eV     1   --> A              
     e( 11 - 11) =      6.61796  eV     1   --> B              
     e( 12 - 12) =      8.18773  eV     1   --> A              
     e( 13 - 13) =      9.05795  eV     1   --> B              
     e( 14 - 14) =     12.90705  eV     1   --> A              
     e( 15 - 15) =     15.36529  eV     1   --> A              
     e( 16 - 16) =     15.43838  eV     1   --> B              
     e( 17 - 17) =     16.15305  eV     1   --> B              
     e( 18 - 18) =     16.22762  eV     1   --> A              
     e( 19 - 19) =     17.28817  eV     1   --> B              
     e( 20 - 20) =     18.14644  eV     1   --> A              

 **************************************************************************

 **************************************************************************

                    xk=(   0.43333,   0.00000,   0.00000  )

     Band symmetry, C_2  (2)    point group:

     e(  1 -  1) =     -6.10548  eV     1   --> A              
     e(  2 -  2) =     -5.42327  eV     1   --> B              
     e(  3 -  3) =      1.16782  eV     1   --> A              
     e(  4 -  4) =      1.53700  eV     1   --> B              
     e(  5 -  5) =      1.97086  eV     1   --> A              
     e(  6 -  6) =      2.63821  eV     1   --> A              
     e(  7 -  7) =      2.79259  eV     1   --> B              
     e(  8 -  8) =      4.48835  eV     1   --> A              
     e(  9 -  9) =      4.98694  eV     1   --> B              
     e( 10 - 10) =      5.36153  eV     1   --> A              
     e( 11 - 11) =      6.70189  eV     1   --> B              
     e( 12 - 12) =      8.22736  eV     1   --> A              
     e( 13 - 13) =      9.11252  eV     1   --> B              
     e( 14 - 14) =     12.99834  eV     1   --> A              
     e( 15 - 15) =     15.27306  eV     1   --> B              
     e( 16 - 16) =     15.34593  eV     1   --> A              
     e( 17 - 17) =     16.10956  eV     1   --> B              
     e( 18 - 18) =     16.15443  eV     1   --> A              
     e( 19 - 19) =     17.13155  eV     1   --> B              
     e( 20 - 20) =     18.21765  eV     1   --> A              

 **************************************************************************

 **************************************************************************

                    xk=(   0.39999,   0.00000,   0.00000  )

     Band symmetry, C_2  (2)    point group:

     e(  1 -  1) =     -6.25867  eV     1   --> A              
     e(  2 -  2) =     -5.39345  eV     1   --> B              
     e(  3 -  3) =      1.27122  eV     1   --> A              
     e(  4 -  4) =      1.50688  eV     1   --> B              
     e(  5 -  5) =      1.94711  eV     1   --> A              
     e(  6 -  6) =      2.58247  eV     1   --> A              
     e(  7 -  7) =      2.79277  eV     1   --> B              
     e(  8 -  8) =      4.45646  eV     1   --> A              
     e(  9 -  9) =      5.18359  eV     1   --> B              
     e( 10 - 10) =      5.51805  eV     1   --> A              
     e( 11 - 11) =      6.77141  eV     1   --> B              
     e( 12 - 12) =      8.29026  eV     1   --> A              
     e( 13 - 13) =      9.11919  eV     1   --> B              
     e( 14 - 14) =     13.10645  eV     1   --> A              
     e( 15 - 15) =     15.12615  eV     1   --> B              
     e( 16 - 16) =     15.29136  eV     1   --> A              
     e( 17 - 17) =     16.10965  eV     1   --> A              
     e( 18 - 18) =     16.12052  eV     1   --> B              
     e( 19 - 19) =     16.99535  eV     1   --> B              
     e( 20 - 20) =     18.28673  eV     1   --> A              

 **************************************************************************

 **************************************************************************

                    xk=(   0.36666,   0.00000,   0.00000  )

     Band symmetry, C_2  (2)    point group:

     e(  1 -  1) =     -6.41654  eV     1   --> A              
     e(  2 -  2) =     -5.36086  eV     1   --> B              
     e(  3 -  3) =      1.34992  eV     1   --> A              
     e(  4 -  4) =      1.45983  eV     1   --> B              
     e(  5 -  5) =      1.89959  eV     1   --> A              
     e(  6 -  6) =      2.56947  eV     1   --> A              
     e(  7 -  7) =      2.82304  eV     1   --> B              
     e(  8 -  8) =      4.43787  eV     1   --> A              
     e(  9 -  9) =      5.39809  eV     1   --> B              
     e( 10 - 10) =      5.68471  eV     1   --> A              
     e( 11 - 11) =      6.82605  eV     1   --> B              
     e( 12 - 12) =      8.37937  eV     1   --> A              
     e( 13 - 13) =      9.08105  eV     1   --> B              
     e( 14 - 14) =     13.23069  eV     1   --> A              
     e( 15 - 15) =     14.97220  eV     1   --> B              
     e( 16 - 16) =     15.17012  eV     1   --> A              
     e( 17 - 17) =     16.12370  eV     1   --> A              
     e( 18 - 18) =     16.19999  eV     1   --> B              
     e( 19 - 19) =     16.89928  eV     1   --> B              
     e( 20 - 20) =     18.35830  eV     1   --> A              

 **************************************************************************

 **************************************************************************

                    xk=(   0.33333,   0.00000,   0.00000  )

     Band symmetry, C_2  (2)    point group:

     e(  1 -  1) =     -6.57444  eV     1   --> A              
     e(  2 -  2) =     -5.32625  eV     1   --> B              
     e(  3 -  3) =      1.38354  eV     1   --> A              
     e(  4 -  4) =      1.40117  eV     1   --> B              
     e(  5 -  5) =      1.82654  eV     1   --> A              
     e(  6 -  6) =      2.62394  eV     1   --> A              
     e(  7 -  7) =      2.88051  eV     1   --> B              
     e(  8 -  8) =      4.44278  eV     1   --> A              
     e(  9 -  9) =      5.62116  eV     1   --> B              
     e( 10 - 10) =      5.83997  eV     1   --> A              
     e( 11 - 11) =      6.86666  eV     1   --> B              
     e( 12 - 12) =      8.49561  eV     1   --> A              
     e( 13 - 13) =      9.00897  eV     1   --> B              
     e( 14 - 14) =     13.36838  eV     1   --> A              
     e( 15 - 15) =     14.78908  eV     1   --> B              
     e( 16 - 16) =     14.97534  eV     1   --> A              
     e( 17 - 17) =     16.20704  eV     1   --> A              
     e( 18 - 18) =     16.35698  eV     1   --> B              
     e( 19 - 19) =     16.84835  eV     1   --> B              
     e( 20 - 20) =     18.43181  eV     1   --> A              

 **************************************************************************

 **************************************************************************

                    xk=(   0.30000,   0.00000,   0.00000  )

     Band symmetry, C_2  (2)    point group:

     e(  1 -  1) =     -6.72823  eV     1   --> A              
     e(  2 -  2) =     -5.29052  eV     1   --> B              
     e(  3 -  3) =      1.33724  eV     1   --> B              
     e(  4 -  4) =      1.37226  eV     1   --> A              
     e(  5 -  5) =      1.72802  eV     1   --> A              
     e(  6 -  6) =      2.74769  eV     1   --> A              
     e(  7 -  7) =      2.95980  eV     1   --> B              
     e(  8 -  8) =      4.47383  eV     1   --> A              
     e(  9 -  9) =      5.84061  eV     1   --> B              
     e( 10 - 10) =      5.97286  eV     1   --> A              
     e( 11 - 11) =      6.89555  eV     1   --> B              
     e( 12 - 12) =      8.63639  eV     1   --> A              
     e( 13 - 13) =      8.92055  eV     1   --> B              
     e( 14 - 14) =     13.51143  eV     1   --> A              
     e( 15 - 15) =     14.56923  eV     1   --> B              
     e( 16 - 16) =     14.72892  eV     1   --> A              
     e( 17 - 17) =     16.34910  eV     1   --> A              
     e( 18 - 18) =     16.58413  eV     1   --> B              
     e( 19 - 19) =     16.82910  eV     1   --> B              
     e( 20 - 20) =     18.50427  eV     1   --> A              

 **************************************************************************

 **************************************************************************

                    xk=(   0.26666,   0.00000,   0.00000  )

     Band symmetry, C_2  (2)    point group:

     e(  1 -  1) =     -6.87430  eV     1   --> A              
     e(  2 -  2) =     -5.25466  eV     1   --> B              
     e(  3 -  3) =      1.27363  eV     1   --> B              
     e(  4 -  4) =      1.33158  eV     1   --> A              
     e(  5 -  5) =      1.61279  eV     1   --> A              
     e(  6 -  6) =      2.91595  eV     1   --> A              
     e(  7 -  7) =      3.05485  eV     1   --> B              
     e(  8 -  8) =      4.53229  eV     1   --> A              
     e(  9 -  9) =      6.04039  eV     1   --> B              
     e( 10 - 10) =      6.07950  eV     1   --> A              
     e( 11 - 11) =      6.91624  eV     1   --> B              
     e( 12 - 12) =      8.79499  eV     1   --> A              
     e( 13 - 13) =      8.83869  eV     1   --> B              
     e( 14 - 14) =     13.63212  eV     1   --> A              
     e( 15 - 15) =     14.31694  eV     1   --> B              
     e( 16 - 16) =     14.47748  eV     1   --> A              
     e( 17 - 17) =     16.53505  eV     1   --> A              
     e( 18 - 18) =     16.73555  eV     1   --> B              
     e( 19 - 19) =     16.92739  eV     1   --> B              
     e( 20 - 20) =     18.48830  eV     1   --> B              

 **************************************************************************

 **************************************************************************

                    xk=(   0.23333,   0.00000,   0.00000  )

     Band symmetry, C_2  (2)    point group:

     e(  1 -  1) =     -7.00959  eV     1   --> A              
     e(  2 -  2) =     -5.21972  eV     1   --> B              
     e(  3 -  3) =      1.21442  eV     1   --> B              
     e(  4 -  4) =      1.27702  eV     1   --> A              
     e(  5 -  5) =      1.49226  eV     1   --> A              
     e(  6 -  6) =      3.09802  eV     1   --> A              
     e(  7 -  7) =      3.15977  eV     1   --> B              
     e(  8 -  8) =      4.62019  eV     1   --> A              
     e(  9 -  9) =      6.16094  eV     1   --> A              
     e( 10 - 10) =      6.20187  eV     1   --> B              
     e( 11 - 11) =      6.93155  eV     1   --> B              
     e( 12 - 12) =      8.78990  eV     1   --> B              
     e( 13 - 13) =      8.96149  eV     1   --> A              
     e( 14 - 14) =     13.63678  eV     1   --> A              
     e( 15 - 15) =     14.04031  eV     1   --> B              
     e( 16 - 16) =     14.33170  eV     1   --> A              
     e( 17 - 17) =     16.61800  eV     1   --> B              
     e( 18 - 18) =     16.75010  eV     1   --> A              
     e( 19 - 19) =     17.25635  eV     1   --> B              
     e( 20 - 20) =     18.36444  eV     1   --> B              

 **************************************************************************

 **************************************************************************

                    xk=(   0.20000,   0.00000,   0.00000  )

     Band symmetry, C_2  (2)    point group:

     e(  1 -  1) =     -7.13152  eV     1   --> A              
     e(  2 -  2) =     -5.18677  eV     1   --> B              
     e(  3 -  3) =      1.16224  eV     1   --> B              
     e(  4 -  4) =      1.21891  eV     1   --> A              
     e(  5 -  5) =      1.37559  eV     1   --> A              
     e(  6 -  7) =      3.26888  eV     2   --> A              
     e(  6 -  7) =      3.26888  eV     2   --> B              
     e(  8 -  8) =      4.73886  eV     1   --> A              
     e(  9 -  9) =      6.22101  eV     1   --> A              
     e( 10 - 10) =      6.31085  eV     1   --> B              
     e( 11 - 11) =      6.93957  eV     1   --> B              
     e( 12 - 12) =      8.79978  eV     1   --> B              
     e( 13 - 13) =      9.12457  eV     1   --> A              
     e( 14 - 14) =     13.43720  eV     1   --> A              
     e( 15 - 15) =     13.74693  eV     1   --> B              
     e( 16 - 16) =     14.39451  eV     1   --> A              
     e( 17 - 17) =     16.38970  eV     1   --> B              
     e( 18 - 18) =     16.97641  eV     1   --> A              
     e( 19 - 19) =     17.62249  eV     1   --> B              
     e( 20 - 20) =     18.45317  eV     1   --> B              

 **************************************************************************

 **************************************************************************

                    xk=(   0.16666,   0.00000,   0.00000  )

     Band symmetry, C_2  (2)    point group:

     e(  1 -  1) =     -7.23798  eV     1   --> A              
     e(  2 -  2) =     -5.15686  eV     1   --> B              
     e(  3 -  3) =      1.11844  eV     1   --> B              
     e(  4 -  4) =      1.16347  eV     1   --> A              
     e(  5 -  5) =      1.26927  eV     1   --> A              
     e(  6 -  6) =      3.37650  eV     1   --> B              
     e(  7 -  7) =      3.41271  eV     1   --> A              
     e(  8 -  8) =      4.88510  eV     1   --> A              
     e(  9 -  9) =      6.26457  eV     1   --> A              
     e( 10 - 10) =      6.36731  eV     1   --> B              
     e( 11 - 11) =      6.93264  eV     1   --> B              
     e( 12 - 12) =      8.88300  eV     1   --> B              
     e( 13 - 13) =      9.27356  eV     1   --> A              
     e( 14 - 14) =     13.14092  eV     1   --> A              
     e( 15 - 15) =     13.44383  eV     1   --> B              
     e( 16 - 16) =     14.57055  eV     1   --> A              
     e( 17 - 17) =     16.11462  eV     1   --> B              
     e( 18 - 18) =     17.19056  eV     1   --> A              
     e( 19 - 19) =     17.99199  eV     1   --> B              
     e( 20 - 20) =     18.71624  eV     1   --> B              

 **************************************************************************

 **************************************************************************

                    xk=(   0.13333,   0.00000,   0.00000  )

     Band symmetry, C_2  (2)    point group:

     e(  1 -  1) =     -7.32728  eV     1   --> A              
     e(  2 -  2) =     -5.13093  eV     1   --> B              
     e(  3 -  3) =      1.08347  eV     1   --> B              
     e(  4 -  4) =      1.11439  eV     1   --> A              
     e(  5 -  5) =      1.17785  eV     1   --> A              
     e(  6 -  6) =      3.47678  eV     1   --> B              
     e(  7 -  7) =      3.52291  eV     1   --> A              
     e(  8 -  8) =      5.04763  eV     1   --> A              
     e(  9 -  9) =      6.29624  eV     1   --> A              
     e( 10 - 10) =      6.38486  eV     1   --> B              
     e( 11 - 11) =      6.90641  eV     1   --> B              
     e( 12 - 12) =      9.03329  eV     1   --> B              
     e( 13 - 13) =      9.39993  eV     1   --> A              
     e( 14 - 14) =     12.83831  eV     1   --> A              
     e( 15 - 15) =     13.13997  eV     1   --> B              
     e( 16 - 16) =     14.77827  eV     1   --> A              
     e( 17 - 17) =     15.84783  eV     1   --> B              
     e( 18 - 18) =     17.36704  eV     1   --> A              
     e( 19 - 19) =     18.35611  eV     1   --> B              
     e( 20 - 20) =     19.04483  eV     1   --> A              

 **************************************************************************

 **************************************************************************

                    xk=(   0.10000,   0.00000,   0.00000  )

     Band symmetry, C_2  (2)    point group:

     e(  1 -  1) =     -7.39806  eV     1   --> A              
     e(  2 -  2) =     -5.10983  eV     1   --> B              
     e(  3 -  3) =      1.05716  eV     1   --> B              
     e(  4 -  4) =      1.07361  eV     1   --> A              
     e(  5 -  5) =      1.10482  eV     1   --> A              
     e(  6 -  6) =      3.56370  eV     1   --> B              
     e(  7 -  7) =      3.60098  eV     1   --> A              
     e(  8 -  8) =      5.20752  eV     1   --> A              
     e(  9 -  9) =      6.31973  eV     1   --> A              
     e( 10 - 10) =      6.38053  eV     1   --> B              
     e( 11 - 11) =      6.86713  eV     1   --> B              
     e( 12 - 12) =      9.22407  eV     1   --> B              
     e( 13 - 13) =      9.49818  eV     1   --> A              
     e( 14 - 14) =     12.56919  eV     1   --> A              
     e( 15 - 15) =     12.84988  eV     1   --> B              
     e( 16 - 16) =     14.98201  eV     1   --> A              
     e( 17 - 17) =     15.62183  eV     1   --> B              
     e( 18 - 18) =     17.48987  eV     1   --> A              
     e( 19 - 19) =     18.71867  eV     1   --> B              
     e( 20 - 20) =     19.26954  eV     1   --> A              

 **************************************************************************

 **************************************************************************

                    xk=(   0.06667,   0.00000,   0.00000  )

     Band symmetry, C_2  (2)    point group:

     e(  1 -  1) =     -7.44932  eV     1   --> A              
     e(  2 -  2) =     -5.09425  eV     1   --> B              
     e(  3 -  3) =      1.03900  eV     1   --> B              
     e(  4 -  4) =      1.03998  eV     1   --> A              
     e(  5 -  5) =      1.05492  eV     1   --> A              
     e(  6 -  6) =      3.63132  eV     1   --> B              
     e(  7 -  7) =      3.65179  eV     1   --> A              
     e(  8 -  8) =      5.34255  eV     1   --> A              
     e(  9 -  9) =      6.33714  eV     1   --> A              
     e( 10 - 10) =      6.36808  eV     1   --> B              
     e( 11 - 11) =      6.82722  eV     1   --> B              
     e( 12 - 12) =      9.41601  eV     1   --> B              
     e( 13 - 13) =      9.56631  eV     1   --> A              
     e( 14 - 14) =     12.35853  eV     1   --> A              
     e( 15 - 15) =     12.59770  eV     1   --> B              
     e( 16 - 16) =     15.15527  eV     1   --> A              
     e( 17 - 17) =     15.45325  eV     1   --> B              
     e( 18 - 18) =     17.56105  eV     1   --> A              
[...]

     Band symmetry, C_1 (1)     point group:

     e(  1 -  2) =     -5.52545  eV     2   -->   2 A              
     e(  3 -  3) =      1.15202  eV     1   --> A              
     e(  4 -  5) =      1.41656  eV     2   -->   2 A              
     e(  6 -  6) =      3.08741  eV     1   --> A              
     e(  7 -  7) =      3.08763  eV     1   --> A              
     e(  8 -  8) =      4.07549  eV     1   --> A              
     e(  9 -  9) =      4.36783  eV     1   --> A              
     e( 10 - 10) =      5.85799  eV     1   --> A              
     e( 11 - 11) =      5.85812  eV     1   --> A              
     e( 12 - 12) =      8.50167  eV     1   --> A              
     e( 13 - 13) =      8.50202  eV     1   --> A              
     e( 14 - 14) =     12.94886  eV     1   --> A              
     e( 15 - 15) =     15.48991  eV     1   --> A              
     e( 16 - 16) =     15.96226  eV     1   --> A              
     e( 17 - 17) =     15.96285  eV     1   --> A              
     e( 18 - 18) =     17.39652  eV     1   --> A              
     e( 19 - 19) =     17.39687  eV     1   --> A              
     e( 20 - 20) =     17.45654  eV     1   --> A              

 **************************************************************************

 **************************************************************************

                    xk=(   0.66666,  -0.00001,   0.12526  )

     Band symmetry, C_1 (1)     point group:

     e(  1 -  2) =     -5.52516  eV     2   -->   2 A              
     e(  3 -  3) =      1.16207  eV     1   --> A              
     e(  4 -  5) =      1.41139  eV     2   -->   2 A              
     e(  6 -  6) =      3.09298  eV     1   --> A              
     e(  7 -  7) =      3.09319  eV     1   --> A              
     e(  8 -  8) =      4.07577  eV     1   --> A              
     e(  9 -  9) =      4.34177  eV     1   --> A              
     e( 10 - 10) =      5.83842  eV     1   --> A              
     e( 11 - 11) =      5.83856  eV     1   --> A              
     e( 12 - 12) =      8.55286  eV     1   --> A              
     e( 13 - 13) =      8.55322  eV     1   --> A              
     e( 14 - 14) =     13.02435  eV     1   --> A              
     e( 15 - 15) =     15.47239  eV     1   --> A              
     e( 16 - 16) =     15.83440  eV     1   --> A              
     e( 17 - 17) =     15.83499  eV     1   --> A              
     e( 18 - 18) =     17.42527  eV     1   --> A              
     e( 19 - 19) =     17.42558  eV     1   --> A              
     e( 20 - 20) =     17.46238  eV     1   --> A              

 **************************************************************************

 **************************************************************************

                    xk=(   0.66666,  -0.00001,   0.14092  )

     Band symmetry, C_1 (1)     point group:

     e(  1 -  2) =     -5.52486  eV     2   -->   2 A              
     e(  3 -  3) =      1.17278  eV     1   --> A              
     e(  4 -  5) =      1.40598  eV     2   -->   2 A              
     e(  6 -  6) =      3.09882  eV     1   --> A              
     e(  7 -  7) =      3.09902  eV     1   --> A              
     e(  8 -  8) =      4.07608  eV     1   --> A              
     e(  9 -  9) =      4.31435  eV     1   --> A              
     e( 10 - 10) =      5.81837  eV     1   --> A              
     e( 11 - 11) =      5.81851  eV     1   --> A              
     e( 12 - 12) =      8.60690  eV     1   --> A              
     e( 13 - 13) =      8.60726  eV     1   --> A              
     e( 14 - 14) =     13.10629  eV     1   --> A              
     e( 15 - 15) =     15.45231  eV     1   --> A              
     e( 16 - 16) =     15.70616  eV     1   --> A              
     e( 17 - 17) =     15.70674  eV     1   --> A              
     e( 18 - 18) =     17.45169  eV     1   --> A              
     e( 19 - 19) =     17.45195  eV     1   --> A              
     e( 20 - 20) =     17.47089  eV     1   --> A              

 **************************************************************************

 **************************************************************************

                    xk=(   0.66666,  -0.00001,   0.15658  )

     Band symmetry, C_1 (1)     point group:

     e(  1 -  2) =     -5.52456  eV     2   -->   2 A              
     e(  3 -  3) =      1.18389  eV     1   --> A              
     e(  4 -  5) =      1.40046  eV     2   -->   2 A              
     e(  6 -  6) =      3.10479  eV     1   --> A              
     e(  7 -  7) =      3.10498  eV     1   --> A              
     e(  8 -  8) =      4.07640  eV     1   --> A              
     e(  9 -  9) =      4.28623  eV     1   --> A              
     e( 10 - 10) =      5.79833  eV     1   --> A              
     e( 11 - 11) =      5.79847  eV     1   --> A              
     e( 12 - 12) =      8.66253  eV     1   --> A              
     e( 13 - 13) =      8.66290  eV     1   --> A              
     e( 14 - 14) =     13.19331  eV     1   --> A              
     e( 15 - 15) =     15.42971  eV     1   --> A              
     e( 16 - 16) =     15.57992  eV     1   --> A              
     e( 17 - 17) =     15.58048  eV     1   --> A              
     e( 18 - 18) =     17.47584  eV     1   --> A              
     e( 19 - 19) =     17.47606  eV     1   --> A              
     e( 20 - 20) =     17.48272  eV     1   --> A              

 **************************************************************************

 **************************************************************************

                    xk=(   0.66666,  -0.00001,   0.17224  )

     Band symmetry, C_1 (1)     point group:

     e(  1 -  2) =     -5.52425  eV     2   -->   2 A              
     e(  3 -  3) =      1.19516  eV     1   --> A              
     e(  4 -  5) =      1.39499  eV     2   -->   2 A              
     e(  6 -  6) =      3.11074  eV     1   --> A              
     e(  7 -  7) =      3.11091  eV     1   --> A              
     e(  8 -  8) =      4.07675  eV     1   --> A              
     e(  9 -  9) =      4.25811  eV     1   --> A              
     e( 10 - 10) =      5.77880  eV     1   --> A              
     e( 11 - 11) =      5.77894  eV     1   --> A              
     e( 12 - 12) =      8.71849  eV     1   --> A              
     e( 13 - 13) =      8.71885  eV     1   --> A              
     e( 14 - 14) =     13.28386  eV     1   --> A              
     e( 15 - 15) =     15.40465  eV     1   --> A              
     e( 16 - 16) =     15.45789  eV     1   --> A              
     e( 17 - 17) =     15.45843  eV     1   --> A              
     e( 18 - 18) =     17.49780  eV     1   --> A              
     e( 19 - 19) =     17.49798  eV     1   --> A              
     e( 20 - 20) =     17.49854  eV     1   --> A              

 **************************************************************************

 **************************************************************************

                    xk=(   0.66666,  -0.00001,   0.18790  )

     Band symmetry, C_1 (1)     point group:

     e(  1 -  2) =     -5.52395  eV     2   -->   2 A              
     e(  3 -  3) =      1.20630  eV     1   --> A              
     e(  4 -  5) =      1.38967  eV     2   -->   2 A              
     e(  6 -  6) =      3.11652  eV     1   --> A              
     e(  7 -  7) =      3.11667  eV     1   --> A              
     e(  8 -  8) =      4.07711  eV     1   --> A              
     e(  9 -  9) =      4.23065  eV     1   --> A              
     e( 10 - 10) =      5.76020  eV     1   --> A              
     e( 11 - 11) =      5.76034  eV     1   --> A              
     e( 12 - 12) =      8.77345  eV     1   --> A              
     e( 13 - 13) =      8.77382  eV     1   --> A              
     e( 14 - 14) =     13.37615  eV     1   --> A              
     e( 15 - 15) =     15.34215  eV     1   --> A              
     e( 16 - 16) =     15.34266  eV     1   --> A              
     e( 17 - 17) =     15.37734  eV     1   --> A              
     e( 18 - 18) =     17.51763  eV     1   --> A              
     e( 19 - 19) =     17.51778  eV     1   --> A              
     e( 20 - 20) =     17.51908  eV     1   --> A              

 **************************************************************************

 **************************************************************************

                    xk=(   0.66666,  -0.00001,   0.20356  )

     Band symmetry, C_1 (1)     point group:

     e(  1 -  2) =     -5.52366  eV     2   -->   2 A              
     e(  3 -  3) =      1.21702  eV     1   --> A              
     e(  4 -  5) =      1.38465  eV     2   -->   2 A              
     e(  6 -  6) =      3.12200  eV     1   --> A              
     e(  7 -  7) =      3.12213  eV     1   --> A              
     e(  8 -  8) =      4.07750  eV     1   --> A              
     e(  9 -  9) =      4.20450  eV     1   --> A              
     e( 10 - 10) =      5.74292  eV     1   --> A              
     e( 11 - 11) =      5.74306  eV     1   --> A              
     e( 12 - 12) =      8.82610  eV     1   --> A              
     e( 13 - 13) =      8.82647  eV     1   --> A              
     e( 14 - 14) =     13.46815  eV     1   --> A              
     e( 15 - 15) =     15.23463  eV     1   --> A              
     e( 16 - 16) =     15.23513  eV     1   --> A              
     e( 17 - 17) =     15.34815  eV     1   --> A              
     e( 18 - 18) =     17.53533  eV     1   --> A              
     e( 19 - 19) =     17.53545  eV     1   --> A              
     e( 20 - 20) =     17.54504  eV     1   --> A              

 **************************************************************************

 **************************************************************************

                    xk=(   0.66666,  -0.00001,   0.21921  )

     Band symmetry, C_1 (1)     point group:

     e(  1 -  2) =     -5.52340  eV     2   -->   2 A              
     e(  3 -  3) =      1.22704  eV     1   --> A              
     e(  4 -  5) =      1.38004  eV     2   -->   2 A              
     e(  6 -  6) =      3.12704  eV     1   --> A              
     e(  7 -  7) =      3.12716  eV     1   --> A              
     e(  8 -  8) =      4.07792  eV     1   --> A              
     e(  9 -  9) =      4.18029  eV     1   --> A              
     e( 10 - 10) =      5.72728  eV     1   --> A              
     e( 11 - 11) =      5.72742  eV     1   --> A              
     e( 12 - 12) =      8.87512  eV     1   --> A              
     e( 13 - 13) =      8.87548  eV     1   --> A              
     e( 14 - 14) =     13.55754  eV     1   --> A              
     e( 15 - 15) =     15.13717  eV     1   --> A              
     e( 16 - 16) =     15.13763  eV     1   --> A              
     e( 17 - 17) =     15.31774  eV     1   --> A              
     e( 18 - 19) =     17.55089  eV     2   -->   2 A              
     e( 20 - 20) =     17.57710  eV     1   --> A              

 **************************************************************************

 **************************************************************************

                    xk=(   0.66666,  -0.00001,   0.23487  )

     Band symmetry, C_1 (1)     point group:

     e(  1 -  2) =     -5.52316  eV     2   -->   2 A              
     e(  3 -  3) =      1.23608  eV     1   --> A              
     e(  4 -  5) =      1.37595  eV     2   -->   2 A              
     e(  6 -  6) =      3.13152  eV     1   --> A              
     e(  7 -  7) =      3.13163  eV     1   --> A              
     e(  8 -  8) =      4.07839  eV     1   --> A              
     e(  9 -  9) =      4.15859  eV     1   --> A              
     e( 10 - 10) =      5.71358  eV     1   --> A              
     e( 11 - 11) =      5.71372  eV     1   --> A              
     e( 12 - 12) =      8.91923  eV     1   --> A              
     e( 13 - 13) =      8.91959  eV     1   --> A              
     e( 14 - 14) =     13.64165  eV     1   --> A              
     e( 15 - 15) =     15.05145  eV     1   --> A              
     e( 16 - 16) =     15.05188  eV     1   --> A              
     e( 17 - 17) =     15.28709  eV     1   --> A              
     e( 18 - 19) =     17.56424  eV     2   -->   2 A              
     e( 20 - 20) =     17.61583  eV     1   --> A              

 **************************************************************************

 **************************************************************************

                    xk=(   0.66666,  -0.00001,   0.25053  )

     Band symmetry, C_1 (1)     point group:

     e(  1 -  2) =     -5.52296  eV     2   -->   2 A              
     e(  3 -  3) =      1.24388  eV     1   --> A              
     e(  4 -  5) =      1.37247  eV     2   -->   2 A              
     e(  6 -  7) =      3.13535  eV     2   -->   2 A              
     e(  8 -  8) =      4.07894  eV     1   --> A              
     e(  9 -  9) =      4.13988  eV     1   --> A              
     e( 10 - 10) =      5.70206  eV     1   --> A              
     e( 11 - 11) =      5.70220  eV     1   --> A              
     e( 12 - 12) =      8.95722  eV     1   --> A              
     e( 13 - 13) =      8.95758  eV     1   --> A              
     e( 14 - 14) =     13.71749  eV     1   --> A              
     e( 15 - 15) =     14.97900  eV     1   --> A              
     e( 16 - 16) =     14.97940  eV     1   --> A              
     e( 17 - 17) =     15.25761  eV     1   --> A              
     e( 18 - 19) =     17.57532  eV     2   -->   2 A              
     e( 20 - 20) =     17.66147  eV     1   --> A              

 **************************************************************************

 **************************************************************************

                    xk=(   0.66666,  -0.00001,   0.26619  )

     Band symmetry, C_1 (1)     point group:

     e(  1 -  2) =     -5.52279  eV     2   -->   2 A              
     e(  3 -  3) =      1.25021  eV     1   --> A              
     e(  4 -  5) =      1.36968  eV     2   -->   2 A              
     e(  6 -  7) =      3.13842  eV     2   -->   2 A              
     e(  8 -  8) =      4.07962  eV     1   --> A              
     e(  9 -  9) =      4.12459  eV     1   --> A              
     e( 10 - 10) =      5.69290  eV     1   --> A              
     e( 11 - 11) =      5.69304  eV     1   --> A              
     e( 12 - 12) =      8.98803  eV     1   --> A              
     e( 13 - 13) =      8.98838  eV     1   --> A              
     e( 14 - 14) =     13.78173  eV     1   --> A              
     e( 15 - 15) =     14.92114  eV     1   --> A              
     e( 16 - 16) =     14.92151  eV     1   --> A              
     e( 17 - 17) =     15.23115  eV     1   --> A              
     e( 18 - 19) =     17.58404  eV     2   -->   2 A              
     e( 20 - 20) =     17.71354  eV     1   --> A              

 **************************************************************************

 **************************************************************************

                    xk=(   0.66666,  -0.00001,   0.28185  )

     Band symmetry, C_1 (1)     point group:

     e(  1 -  2) =     -5.52267  eV     2   -->   2 A              
     e(  3 -  3) =      1.25488  eV     1   --> A              
     e(  4 -  5) =      1.36765  eV     2   -->   2 A              
     e(  6 -  7) =      3.14067  eV     2   -->   2 A              
     e(  8 -  8) =      4.08044  eV     1   --> A              
     e(  9 -  9) =      4.11306  eV     1   --> A              
     e( 10 - 10) =      5.68625  eV     1   --> A              
     e( 11 - 11) =      5.68639  eV     1   --> A              
     e( 12 - 12) =      9.01073  eV     1   --> A              
     e( 13 - 13) =      9.01108  eV     1   --> A              
     e( 14 - 14) =     13.83095  eV     1   --> A              
     e( 15 - 15) =     14.87898  eV     1   --> A              
     e( 16 - 16) =     14.87933  eV     1   --> A              
     e( 17 - 17) =     15.20987  eV     1   --> A              
     e( 18 - 19) =     17.59034  eV     2   -->   2 A              
     e( 20 - 20) =     17.76959  eV     1   --> A              

 **************************************************************************

 **************************************************************************

                    xk=(   0.66666,  -0.00001,   0.29750  )

     Band symmetry, C_1 (1)     point group:

     e(  1 -  2) =     -5.52260  eV     2   -->   2 A              
     e(  3 -  3) =      1.25774  eV     1   --> A              
     e(  4 -  5) =      1.36641  eV     2   -->   2 A              
     e(  6 -  7) =      3.14204  eV     2   -->   2 A              
     e(  8 -  8) =      4.08127  eV     1   --> A              
     e(  9 -  9) =      4.10569  eV     1   --> A              
     e( 10 - 10) =      5.68222  eV     1   --> A              
     e( 11 - 11) =      5.68236  eV     1   --> A              
     e( 12 - 12) =      9.02465  eV     1   --> A              
     e( 13 - 13) =      9.02499  eV     1   --> A              
     e( 14 - 14) =     13.86201  eV     1   --> A              
     e( 15 - 15) =     14.85335  eV     1   --> A              
     e( 16 - 16) =     14.85368  eV     1   --> A              
     e( 17 - 17) =     15.19598  eV     1   --> A              
     e( 18 - 19) =     17.59414  eV     2   -->   2 A              
     e( 20 - 20) =     17.82122  eV     1   --> A              

 **************************************************************************

 **************************************************************************

                    xk=(   0.66666,  -0.00001,   0.31316  )

     point group C_2  (2)   
     there are  2 classes
     the character table:

       E     C2   
A      1.00  1.00
B      1.00 -1.00

     the symmetry operations in each class and the name of the first element:

     E        1
                                                                 
     C2       2
                                                                 

     Band symmetry, C_2  (2)    point group:

     e(  1 -  2) =     -5.52257  eV     2   --> A              
     e(  1 -  2) =     -5.52257  eV     2   --> B              
     e(  3 -  3) =      1.25870  eV     1   --> A              
     e(  4 -  5) =      1.36599  eV     2   --> A              
     e(  4 -  5) =      1.36599  eV     2   --> B              
     e(  6 -  7) =      3.14251  eV     2   --> A              
     e(  6 -  7) =      3.14251  eV     2   --> B              
     e(  8 -  8) =      4.08166  eV     1   --> B              
     e(  9 -  9) =      4.10309  eV     1   --> A              
     e( 10 - 10) =      5.68087  eV     1   --> B              
     e( 11 - 11) =      5.68101  eV     1   --> A              
     e( 12 - 12) =      9.02933  eV     1   --> B              
     e( 13 - 13) =      9.02968  eV     1   --> A              
     e( 14 - 14) =     13.87265  eV     1   --> A              
     e( 15 - 15) =     14.84475  eV     1   --> A              
     e( 16 - 16) =     14.84508  eV     1   --> B              
     e( 17 - 17) =     15.19114  eV     1   --> B              
     e( 18 - 19) =     17.59541  eV     2   --> A              
     e( 18 - 19) =     17.59541  eV     2   --> B              
     e( 20 - 20) =     17.84540  eV     1   --> A              

 **************************************************************************

     BANDS        :   2m 0.89s CPU   2m 9.07s WALL


   This run was terminated on:  23:29:53   8Nov2020            

=------------------------------------------------------------------------------=
   JOB DONE.
=------------------------------------------------------------------------------=
