
     Program BANDS v.6.6 starts on  2Nov2020 at 11:55:12 

     This program is part of the open-source Quantum ESPRESSO suite
     for quantum simulation of materials; please cite
         "P. Giannozzi et al., J. Phys.:Condens. Matter 21 395502 (2009);
         "P. Giannozzi et al., J. Phys.:Condens. Matter 29 465901 (2017);
          URL http://www.quantum-espresso.org", 
     in publications or presentations arising from this work. More details at
     http://www.quantum-espresso.org/quote

     Parallel version (MPI & OpenMP), running on       1 processor cores
     Number of MPI processes:                 1
     Threads/MPI process:                     1

     MPI processes distributed on     1 nodes
     Fft bands division:     nmany     =       1

     Reading xml data from directory:

     ../tmp/si.save/

     IMPORTANT: XC functional enforced from input :
     Exchange-correlation= PBE
                           (   1   4   3   4   0   0   0)
     Any further DFT definition will be discarded
     Please, verify this is what you really want


     G-vector sticks info
     --------------------
     sticks:   dense  smooth     PW     G-vecs:    dense   smooth      PW
     Sum        2587     859    253                87843    16889    2733

     Reading collected, re-writing distributed wavefunctions
     high-symmetry point:  0.5000-0.5000 0.5000   x coordinate   0.0000
     high-symmetry point:  0.0000 0.0000 0.0000   x coordinate   0.8660
     high-symmetry point:  1.0000 0.0000 0.0000   x coordinate   1.8660
     high-symmetry point:  1.0000-0.2500 0.2500   x coordinate   2.2196
     high-symmetry point:  0.0000 0.0000 0.0000   x coordinate   3.2802

     Plottable bands (eV) written to file si.bands.gnu
     Bands written to file si.bands

 **************************************************************************

                    xk=(   0.50000,  -0.50000,   0.50000  )

     zone border point and non-symmorphic group 
     symmetry decomposition not available

 **************************************************************************

 **************************************************************************

                    xk=(   0.47500,  -0.47500,   0.47500  )

     point group C_3v (3m)  
     there are  3 classes
     the character table:

       E     2C3   3s_v 
A_1    1.00  1.00  1.00
A_2    1.00  1.00 -1.00
E      2.00 -1.00  0.00

     the symmetry operations in each class and the name of the first element:

     E        1
                                                                 
     2C3      2    3
                                                                 
     3s_v     4    5    6
                                                                 

     Band symmetry, C_3v (3m)   point group:

     e(  1 -  1) =     -3.37393  eV     1   --> A_1  L_1       
     e(  2 -  2) =     -0.65638  eV     1   --> A_1  L_1       
     e(  3 -  4) =      5.03750  eV     2   --> E    L_3       
     e(  5 -  5) =      7.82857  eV     1   --> A_1  L_1       
     e(  6 -  7) =      9.58260  eV     2   --> E    L_3       
     e(  8 -  8) =     13.98731  eV     1   --> A_1  L_1       

 **************************************************************************

 **************************************************************************

                    xk=(   0.45000,  -0.45000,   0.45000  )

     Band symmetry, C_3v (3m)   point group:

     e(  1 -  1) =     -3.47338  eV     1   --> A_1  L_1       
     e(  2 -  2) =     -0.51077  eV     1   --> A_1  L_1       
     e(  3 -  4) =      5.05093  eV     2   --> E    L_3       
     e(  5 -  5) =      7.84382  eV     1   --> A_1  L_1       
     e(  6 -  7) =      9.59785  eV     2   --> E    L_3       
     e(  8 -  8) =     14.01051  eV     1   --> A_1  L_1       

 **************************************************************************

 **************************************************************************

                    xk=(   0.42500,  -0.42500,   0.42500  )

     Band symmetry, C_3v (3m)   point group:

     e(  1 -  1) =     -3.61889  eV     1   --> A_1  L_1       
     e(  2 -  2) =     -0.28846  eV     1   --> A_1  L_1       
     e(  3 -  4) =      5.07330  eV     2   --> E    L_3       
     e(  5 -  5) =      7.86915  eV     1   --> A_1  L_1       
     e(  6 -  7) =      9.62202  eV     2   --> E    L_3       
     e(  8 -  8) =     14.04666  eV     1   --> A_1  L_1       

 **************************************************************************

 **************************************************************************

                    xk=(   0.40000,  -0.40000,   0.40000  )

     Band symmetry, C_3v (3m)   point group:

     e(  1 -  1) =     -3.79222  eV     1   --> A_1  L_1       
     e(  2 -  2) =     -0.00789  eV     1   --> A_1  L_1       
     e(  3 -  4) =      5.10457  eV     2   --> E    L_3       
     e(  5 -  5) =      7.90445  eV     1   --> A_1  L_1       
     e(  6 -  7) =      9.65312  eV     2   --> E    L_3       
     e(  8 -  8) =     14.09068  eV     1   --> A_1  L_1       

 **************************************************************************

 **************************************************************************

                    xk=(   0.37500,  -0.37500,   0.37500  )

     Band symmetry, C_3v (3m)   point group:

     e(  1 -  1) =     -3.97922  eV     1   --> A_1  L_1       
     e(  2 -  2) =      0.31654  eV     1   --> A_1  L_1       
     e(  3 -  4) =      5.14468  eV     2   --> E    L_3       
     e(  5 -  5) =      7.94953  eV     1   --> A_1  L_1       
     e(  6 -  7) =      9.68820  eV     2   --> E    L_3       
     e(  8 -  8) =     14.13171  eV     1   --> A_1  L_1       

 **************************************************************************

 **************************************************************************

                    xk=(   0.35000,  -0.35000,   0.35000  )

     Band symmetry, C_3v (3m)   point group:

     e(  1 -  1) =     -4.17021  eV     1   --> A_1  L_1       
     e(  2 -  2) =      0.67474  eV     1   --> A_1  L_1       
     e(  3 -  4) =      5.19352  eV     2   --> E    L_3       
     e(  5 -  5) =      8.00411  eV     1   --> A_1  L_1       
     e(  6 -  7) =      9.72318  eV     2   --> E    L_3       
     e(  8 -  8) =     14.14564  eV     1   --> A_1  L_1       

 **************************************************************************

 **************************************************************************

                    xk=(   0.32500,  -0.32500,   0.32500  )

     Band symmetry, C_3v (3m)   point group:

     e(  1 -  1) =     -4.35876  eV     1   --> A_1  L_1       
     e(  2 -  2) =      1.05979  eV     1   --> A_1  L_1       
     e(  3 -  4) =      5.25091  eV     2   --> E    L_3       
     e(  5 -  5) =      8.06780  eV     1   --> A_1  L_1       
     e(  6 -  7) =      9.75272  eV     2   --> E    L_3       
     e(  8 -  8) =     14.08332  eV     1   --> A_1  L_1       

 **************************************************************************

 **************************************************************************

                    xk=(   0.30000,  -0.30000,   0.30000  )

     Band symmetry, C_3v (3m)   point group:

     e(  1 -  1) =     -4.54065  eV     1   --> A_1  L_1       
     e(  2 -  2) =      1.46679  eV     1   --> A_1  L_1       
     e(  3 -  4) =      5.31659  eV     2   --> E    L_3       
     e(  5 -  5) =      8.14003  eV     1   --> A_1  L_1       
     e(  6 -  7) =      9.77038  eV     2   --> E    L_3       
     e(  8 -  8) =     13.83252  eV     1   -->   ?

 **************************************************************************

 **************************************************************************

                    xk=(   0.27500,  -0.27500,   0.27500  )

     Band symmetry, C_3v (3m)   point group:

     e(  1 -  1) =     -4.71302  eV     1   --> A_1  L_1       
     e(  2 -  2) =      1.89205  eV     1   --> A_1  L_1       
     e(  3 -  4) =      5.39014  eV     2   --> E    L_3       
     e(  5 -  5) =      8.22005  eV     1   --> A_1  L_1       
     e(  6 -  7) =      9.76905  eV     2   --> E    L_3       
     e(  8 -  8) =     13.57093  eV     1   --> A_1  L_1       

 **************************************************************************

 **************************************************************************

                    xk=(   0.25000,  -0.25000,   0.25000  )

     Band symmetry, C_3v (3m)   point group:

     e(  1 -  1) =     -4.87393  eV     1   --> A_1  L_1       
     e(  2 -  2) =      2.33251  eV     1   --> A_1  L_1       
     e(  3 -  4) =      5.47097  eV     2   --> E    L_3       
     e(  5 -  5) =      8.30679  eV     1   --> A_1  L_1       
     e(  6 -  7) =      9.74226  eV     2   --> E    L_3       
     e(  8 -  8) =     13.18321  eV     1   --> A_1  L_1       

 **************************************************************************

 **************************************************************************

                    xk=(   0.22500,  -0.22500,   0.22500  )

     Band symmetry, C_3v (3m)   point group:

     e(  1 -  1) =     -5.02199  eV     1   --> A_1  L_1       
     e(  2 -  2) =      2.78530  eV     1   --> A_1  L_1       
     e(  3 -  4) =      5.55824  eV     2   --> E    L_3       
     e(  5 -  5) =      8.39879  eV     1   --> A_1  L_1       
     e(  6 -  7) =      9.68588  eV     2   --> E    L_3       
     e(  8 -  8) =     12.76220  eV     1   --> A_1  L_1       

 **************************************************************************

 **************************************************************************

                    xk=(   0.20000,  -0.20000,   0.20000  )

     Band symmetry, C_3v (3m)   point group:

     e(  1 -  1) =     -5.15620  eV     1   --> A_1  L_1       
     e(  2 -  2) =      3.24746  eV     1   --> A_1  L_1       
     e(  3 -  4) =      5.65076  eV     2   --> E    L_3       
     e(  5 -  5) =      8.49405  eV     1   --> A_1  L_1       
     e(  6 -  7) =      9.59982  eV     2   --> E    L_3       
     e(  8 -  8) =     12.32509  eV     1   --> A_1  L_1       

 **************************************************************************

 **************************************************************************

                    xk=(   0.17500,  -0.17500,   0.17500  )

     Band symmetry, C_3v (3m)   point group:

     e(  1 -  1) =     -5.27585  eV     1   --> A_1  L_1       
     e(  2 -  2) =      3.71550  eV     1   --> A_1  L_1       
     e(  3 -  4) =      5.74689  eV     2   --> E    L_3       
     e(  5 -  5) =      8.58980  eV     1   --> A_1  L_1       
     e(  6 -  7) =      9.48850  eV     2   --> E    L_3       
     e(  8 -  8) =     11.88083  eV     1   --> A_1  L_1       

 **************************************************************************

 **************************************************************************

                    xk=(   0.15000,  -0.15000,   0.15000  )

     Band symmetry, C_3v (3m)   point group:

     e(  1 -  1) =     -5.38038  eV     1   --> A_1  L_1       
     e(  2 -  2) =      4.18491  eV     1   --> A_1  L_1       
     e(  3 -  4) =      5.84436  eV     2   --> E    L_3       
     e(  5 -  5) =      8.68215  eV     1   --> A_1  L_1       
     e(  6 -  7) =      9.36001  eV     2   --> E    L_3       
     e(  8 -  8) =     11.43632  eV     1   --> A_1  L_1       

 **************************************************************************

 **************************************************************************

                    xk=(   0.12500,  -0.12500,   0.12500  )

     Band symmetry, C_3v (3m)   point group:

     e(  1 -  1) =     -5.46939  eV     1   --> A_1  L_1       
     e(  2 -  2) =      4.64928  eV     1   --> A_1  L_1       
     e(  3 -  4) =      5.94014  eV     2   --> E    L_3       
     e(  5 -  5) =      8.76559  eV     1   --> A_1  L_1       
     e(  6 -  7) =      9.22444  eV     2   --> E    L_3       
     e(  8 -  8) =     11.00001  eV     1   --> A_1  L_1       

 **************************************************************************

 **************************************************************************

                    xk=(   0.10000,  -0.10000,   0.10000  )

     Band symmetry, C_3v (3m)   point group:

     e(  1 -  1) =     -5.54258  eV     1   --> A_1  L_1       
     e(  2 -  2) =      5.09876  eV     1   --> A_1  L_1       
     e(  3 -  4) =      6.03024  eV     2   --> E    L_3       
     e(  5 -  5) =      8.83200  eV     1   --> A_1  L_1       
     e(  6 -  7) =      9.09257  eV     2   --> E    L_3       
     e(  8 -  8) =     10.58538  eV     1   --> A_1  L_1       

 **************************************************************************

 **************************************************************************

                    xk=(   0.07500,  -0.07500,   0.07500  )

     Band symmetry, C_3v (3m)   point group:

     e(  1 -  1) =     -5.59971  eV     1   --> A_1  L_1       
     e(  2 -  2) =      5.51716  eV     1   --> A_1  L_1       
     e(  3 -  4) =      6.10967  eV     2   --> E    L_3       
     e(  5 -  5) =      8.86966  eV     1   --> A_1  L_1       
     e(  6 -  7) =      8.97507  eV     2   --> E    L_3       
     e(  8 -  8) =     10.21544  eV     1   --> A_1  L_1       

 **************************************************************************

 **************************************************************************

                    xk=(   0.05000,  -0.05000,   0.05000  )

     Band symmetry, C_3v (3m)   point group:

     e(  1 -  1) =     -5.64063  eV     1   --> A_1  L_1       
     e(  2 -  2) =      5.87680  eV     1   --> A_1  L_1       
     e(  3 -  4) =      6.17267  eV     2   --> E    L_3       
     e(  5 -  5) =      8.86584  eV     1   --> A_1  L_1       
     e(  6 -  7) =      8.88198  eV     2   --> E    L_3       
     e(  8 -  8) =      9.92567  eV     1   --> A_1  L_1       

 **************************************************************************

 **************************************************************************

                    xk=(   0.02500,  -0.02500,   0.02500  )

     Band symmetry, C_3v (3m)   point group:

     e(  1 -  1) =     -5.66523  eV     1   --> A_1  L_1       
     e(  2 -  2) =      6.13253  eV     1   --> A_1  L_1       
     e(  3 -  4) =      6.21347  eV     2   --> E    L_3       
     e(  5 -  6) =      8.82200  eV     2   --> E    L_3       
     e(  7 -  7) =      8.82672  eV     1   --> A_1  L_1       
     e(  8 -  8) =      9.75074  eV     1   --> A_1  L_1       

 **************************************************************************

 **************************************************************************

                    xk=(   0.00000,   0.00000,   0.00000  )

     point group O_h (m-3m) 
     there are 10 classes
     the character table:

       E     8C3   3C2   6C4   6C2'  i     8S6   3s_h  6S4   6s_d 
A_1g   1.00  1.00  1.00  1.00  1.00  1.00  1.00  1.00  1.00  1.00
A_2g   1.00  1.00  1.00 -1.00 -1.00  1.00  1.00  1.00 -1.00 -1.00
E_g    2.00 -1.00  2.00  0.00  0.00  2.00 -1.00  2.00  0.00  0.00
T_1g   3.00  0.00 -1.00  1.00 -1.00  3.00  0.00 -1.00  1.00 -1.00
T_2g   3.00  0.00 -1.00 -1.00  1.00  3.00  0.00 -1.00 -1.00  1.00
A_1u   1.00  1.00  1.00  1.00  1.00 -1.00 -1.00 -1.00 -1.00 -1.00
A_2u   1.00  1.00  1.00 -1.00 -1.00 -1.00 -1.00 -1.00  1.00  1.00
E_u    2.00 -1.00  2.00  0.00  0.00 -2.00  1.00 -2.00  0.00  0.00
T_1u   3.00  0.00 -1.00  1.00 -1.00 -3.00  0.00  1.00 -1.00  1.00
T_2u   3.00  0.00 -1.00 -1.00  1.00 -3.00  0.00  1.00  1.00 -1.00

     the symmetry operations in each class and the name of the first element:

     E        1
                                                                 
     8C3     17   19   20   18   24   21   22   23
                                                                 
     3C2      2    4    3
                                                                 
     6C4      7    8   15   16   12   11
                                                                 
     6C2'     5    6   14   13   10    9
                                                                 
     i       25
                                                                 
     8S6     41   43   44   42   48   45   46   47
                                                                 
     3s_h    26   28   27
                                                                 
     6S4     31   32   39   40   36   35
                                                                 
     6s_d    29   30   38   37   34   33
                                                                 

     Band symmetry, O_h (m-3m)  point group:

     e(  1 -  1) =     -5.67343  eV     1   --> A_1g G_1   G_1+
     e(  2 -  4) =      6.22764  eV     3   --> T_2g G_25' G_5+
     e(  5 -  7) =      8.80125  eV     3   --> T_1u G_15  G_4-
     e(  8 -  8) =      9.69535  eV     1   --> A_2u G_2'  G_2-

 **************************************************************************

 **************************************************************************

                    xk=(   0.03333,   0.00000,   0.00000  )

     point group C_4v (4mm) 
     there are  5 classes
     the character table:

       E     2C4   C2    2s_v  2s_d 
A_1    1.00  1.00  1.00  1.00  1.00
A_2    1.00  1.00  1.00 -1.00 -1.00
B_1    1.00 -1.00  1.00  1.00 -1.00
B_2    1.00 -1.00  1.00 -1.00  1.00
E      2.00  0.00 -2.00  0.00  0.00

     the symmetry operations in each class and the name of the first element:

     E        1
                                                                 
     2C4      3    4
                                                                 
     C2       2
                                                                 
     2s_v     5    6
                                                                 
     2s_d     7    8
                                                                 

     Band symmetry, C_4v (4mm)  point group:

     e(  1 -  1) =     -5.66857  eV     1   --> A_1  G_1 D_1   
     e(  2 -  2) =      6.19530  eV     1   --> B_2  G_4 D_2'  
     e(  3 -  4) =      6.20663  eV     2   --> E    G_5 D_5   
     e(  5 -  5) =      8.78929  eV     1   --> A_1  G_1 D_1   
     e(  6 -  7) =      8.82825  eV     2   --> E    G_5 D_5   
     e(  8 -  8) =      9.72702  eV     1   --> B_2  G_4 D_2'  

 **************************************************************************

 **************************************************************************

                    xk=(   0.06667,   0.00000,   0.00000  )

     Band symmetry, C_4v (4mm)  point group:

     e(  1 -  1) =     -5.65398  eV     1   --> A_1  G_1 D_1   
     e(  2 -  2) =      6.10183  eV     1   --> B_2  G_4 D_2'  
     e(  3 -  4) =      6.14620  eV     2   --> E    G_5 D_5   
     e(  5 -  5) =      8.75404  eV     1   --> A_1  G_1 D_1   
     e(  6 -  7) =      8.90665  eV     2   --> E    G_5 D_5   
     e(  8 -  8) =      9.81784  eV     1   --> B_2  G_4 D_2'  

 **************************************************************************

 **************************************************************************

                    xk=(   0.10000,   0.00000,   0.00000  )

     Band symmetry, C_4v (4mm)  point group:

     e(  1 -  1) =     -5.62968  eV     1   --> A_1  G_1 D_1   
     e(  2 -  2) =      5.95623  eV     1   --> B_2  G_4 D_2'  
     e(  3 -  4) =      6.05294  eV     2   --> E    G_5 D_5   
     e(  5 -  5) =      8.69731  eV     1   --> A_1  G_1 D_1   
     e(  6 -  7) =      9.02979  eV     2   --> E    G_5 D_5   
     e(  8 -  8) =      9.95676  eV     1   --> B_2  G_4 D_2'  

 **************************************************************************

 **************************************************************************

                    xk=(   0.13333,   0.00000,   0.00000  )

     Band symmetry, C_4v (4mm)  point group:

     e(  1 -  1) =     -5.59568  eV     1   --> A_1  G_1 D_1   
     e(  2 -  2) =      5.76949  eV     1   --> B_2  G_4 D_2'  
     e(  3 -  4) =      5.93495  eV     2   --> E    G_5 D_5   
     e(  5 -  5) =      8.62179  eV     1   --> A_1  G_1 D_1   
     e(  6 -  7) =      9.18953  eV     2   --> E    G_5 D_5   
     e(  8 -  8) =     10.12865  eV     1   --> B_2  G_4 D_2'  

 **************************************************************************

 **************************************************************************

                    xk=(   0.16667,   0.00000,   0.00000  )

     Band symmetry, C_4v (4mm)  point group:

     e(  1 -  1) =     -5.55201  eV     1   --> A_1  G_1 D_1   
     e(  2 -  2) =      5.55185  eV     1   --> B_2  G_4 D_2'  
     e(  3 -  4) =      5.79985  eV     2   --> E    G_5 D_5   
     e(  5 -  5) =      8.53067  eV     1   --> A_1  G_1 D_1   
     e(  6 -  7) =      9.37816  eV     2   --> E    G_5 D_5   
     e(  8 -  8) =     10.31579  eV     1   --> B_2  G_4 D_2'  

 **************************************************************************

 **************************************************************************

                    xk=(   0.20000,   0.00000,   0.00000  )

     Band symmetry, C_4v (4mm)  point group:

     e(  1 -  1) =     -5.49868  eV     1   --> A_1  G_1 D_1   
     e(  2 -  2) =      5.31157  eV     1   --> B_2  G_4 D_2'  
     e(  3 -  4) =      5.65385  eV     2   --> E    G_5 D_5   
     e(  5 -  5) =      8.42731  eV     1   --> A_1  G_1 D_1   
     e(  6 -  7) =      9.58934  eV     2   --> E    G_5 D_5   
     e(  8 -  8) =     10.49653  eV     1   --> B_2  G_4 D_2'  

 **************************************************************************

 **************************************************************************

                    xk=(   0.23333,   0.00000,   0.00000  )

     Band symmetry, C_4v (4mm)  point group:

     e(  1 -  1) =     -5.43573  eV     1   --> A_1  G_1 D_1   
     e(  2 -  2) =      5.05483  eV     1   --> B_2  G_4 D_2'  
     e(  3 -  4) =      5.50171  eV     2   --> E    G_5 D_5   
     e(  5 -  5) =      8.31497  eV     1   --> A_1  G_1 D_1   
     e(  6 -  7) =      9.81821  eV     2   --> E    G_5 D_5   
     e(  8 -  8) =     10.64210  eV     1   --> B_2  G_4 D_2'  

 **************************************************************************

 **************************************************************************

                    xk=(   0.26667,   0.00000,   0.00000  )

     Band symmetry, C_4v (4mm)  point group:

     e(  1 -  1) =     -5.36320  eV     1   --> A_1  G_1 D_1   
     e(  2 -  2) =      4.78615  eV     1   --> B_2  G_4 D_2'  
     e(  3 -  4) =      5.34697  eV     2   --> E    G_5 D_5   
     e(  5 -  5) =      8.19664  eV     1   --> A_1  G_1 D_1   
     e(  6 -  7) =     10.06110  eV     2   --> E    G_5 D_5   
     e(  8 -  8) =     10.71656  eV     1   --> B_2  G_4 D_2'  

 **************************************************************************

 **************************************************************************

                    xk=(   0.30000,   0.00000,   0.00000  )

     Band symmetry, C_4v (4mm)  point group:

     e(  1 -  1) =     -5.28114  eV     1   --> A_1  G_1 D_1   
     e(  2 -  2) =      4.50874  eV     1   --> B_2  G_4 D_2'  
     e(  3 -  4) =      5.19221  eV     2   --> E    G_5 D_5   
     e(  5 -  5) =      8.07497  eV     1   --> A_1  G_1 D_1   
     e(  6 -  7) =     10.31527  eV     2   --> E    G_5 D_5   
     e(  8 -  8) =     10.69148  eV     1   --> B_2  G_4 D_2'  

 **************************************************************************

 **************************************************************************

                    xk=(   0.33333,   0.00000,   0.00000  )

     Band symmetry, C_4v (4mm)  point group:

     e(  1 -  1) =     -5.18960  eV     1   --> A_1  G_1 D_1   
     e(  2 -  2) =      4.22493  eV     1   --> B_2  G_4 D_2'  
     e(  3 -  4) =      5.03935  eV     2   --> E    G_5 D_5   
     e(  5 -  5) =      7.95225  eV     1   --> A_1  G_1 D_1   
     e(  6 -  6) =     10.56910  eV     1   --> B_2  G_4 D_2'  
     e(  7 -  8) =     10.57866  eV     2   --> E    G_5 D_5   

 **************************************************************************

 **************************************************************************

                    xk=(   0.36667,   0.00000,   0.00000  )

     Band symmetry, C_4v (4mm)  point group:

     e(  1 -  1) =     -5.08864  eV     1   --> A_1  G_1 D_1   
     e(  2 -  2) =      3.93640  eV     1   --> B_2  G_4 D_2'  
     e(  3 -  4) =      4.88985  eV     2   --> E    G_5 D_5   
     e(  5 -  5) =      7.83044  eV     1   --> A_1  G_1 D_1   
     e(  6 -  6) =     10.37759  eV     1   --> B_2  G_4 D_2'  
     e(  7 -  8) =     10.84968  eV     2   --> E    G_5 D_5   

 **************************************************************************

 **************************************************************************

                    xk=(   0.40000,   0.00000,   0.00000  )

     Band symmetry, C_4v (4mm)  point group:

     e(  1 -  1) =     -4.97834  eV     1   --> A_1  G_1 D_1   
     e(  2 -  2) =      3.64438  eV     1   --> B_2  G_4 D_2'  
     e(  3 -  4) =      4.74480  eV     2   --> E    G_5 D_5   
     e(  5 -  5) =      7.71120  eV     1   --> A_1  G_1 D_1   
     e(  6 -  6) =     10.14667  eV     1   --> B_2  G_4 D_2'  
     e(  7 -  8) =     11.12711  eV     2   --> E    G_5 D_5   

 **************************************************************************

 **************************************************************************

                    xk=(   0.43333,   0.00000,   0.00000  )

     Band symmetry, C_4v (4mm)  point group:

     e(  1 -  1) =     -4.85876  eV     1   --> A_1  G_1 D_1   
     e(  2 -  2) =      3.34983  eV     1   --> B_2  G_4 D_2'  
     e(  3 -  4) =      4.60504  eV     2   --> E    G_5 D_5   
     e(  5 -  5) =      7.59593  eV     1   --> A_1  G_1 D_1   
     e(  6 -  6) =      9.89688  eV     1   --> B_2  G_4 D_2'  
     e(  7 -  8) =     11.41000  eV     2   --> E    G_5 D_5   

 **************************************************************************

 **************************************************************************

                    xk=(   0.46667,   0.00000,   0.00000  )

     Band symmetry, C_4v (4mm)  point group:

     e(  1 -  1) =     -4.72999  eV     1   --> A_1  G_1 D_1   
     e(  2 -  2) =      3.05349  eV     1   --> B_2  G_4 D_2'  
     e(  3 -  4) =      4.47125  eV     2   --> E    G_5 D_5   
     e(  5 -  5) =      7.48583  eV     1   --> A_1  G_1 D_1   
     e(  6 -  6) =      9.64068  eV     1   --> B_2  G_4 D_2'  
     e(  7 -  8) =     11.69759  eV     2   --> E    G_5 D_5   

 **************************************************************************

 **************************************************************************

                    xk=(   0.50000,   0.00000,   0.00000  )

     Band symmetry, C_4v (4mm)  point group:

     e(  1 -  1) =     -4.59213  eV     1   --> A_1  G_1 D_1   
     e(  2 -  2) =      2.75597  eV     1   --> B_2  G_4 D_2'  
     e(  3 -  4) =      4.34394  eV     2   --> E    G_5 D_5   
     e(  5 -  5) =      7.38189  eV     1   --> A_1  G_1 D_1   
     e(  6 -  6) =      9.38561  eV     1   --> B_2  G_4 D_2'  
     e(  7 -  8) =     11.98929  eV     2   --> E    G_5 D_5   

 **************************************************************************

 **************************************************************************

                    xk=(   0.53333,   0.00000,   0.00000  )

     Band symmetry, C_4v (4mm)  point group:

     e(  1 -  1) =     -4.44528  eV     1   --> A_1  G_1 D_1   
     e(  2 -  2) =      2.45780  eV     1   --> B_2  G_4 D_2'  
     e(  3 -  4) =      4.22354  eV     2   --> E    G_5 D_5   
     e(  5 -  5) =      7.28498  eV     1   --> A_1  G_1 D_1   
     e(  6 -  6) =      9.13632  eV     1   --> B_2  G_4 D_2'  
     e(  7 -  8) =     12.28462  eV     2   --> E    G_5 D_5   

 **************************************************************************

 **************************************************************************

                    xk=(   0.56667,   0.00000,   0.00000  )

     Band symmetry, C_4v (4mm)  point group:

     e(  1 -  1) =     -4.28955  eV     1   --> A_1  G_1 D_1   
     e(  2 -  2) =      2.15946  eV     1   --> B_2  G_4 D_2'  
     e(  3 -  4) =      4.11040  eV     2   --> E    G_5 D_5   
     e(  5 -  5) =      7.19584  eV     1   --> A_1  G_1 D_1   
     e(  6 -  6) =      8.89582  eV     1   --> B_2  G_4 D_2'  
     e(  7 -  8) =     12.58323  eV     2   --> E    G_5 D_5   

 **************************************************************************

 **************************************************************************

                    xk=(   0.60000,   0.00000,   0.00000  )

     Band symmetry, C_4v (4mm)  point group:

     e(  1 -  1) =     -4.12507  eV     1   --> A_1  G_1 D_1   
     e(  2 -  2) =      1.86141  eV     1   --> B_2  G_4 D_2'  
     e(  3 -  4) =      4.00480  eV     2   --> E    G_5 D_5   
     e(  5 -  5) =      7.11511  eV     1   --> A_1  G_1 D_1   
     e(  6 -  6) =      8.66608  eV     1   --> B_2  G_4 D_2'  
     e(  7 -  8) =     12.88482  eV     2   --> E    G_5 D_5   

 **************************************************************************

 **************************************************************************

                    xk=(   0.63333,   0.00000,   0.00000  )

     Band symmetry, C_4v (4mm)  point group:

     e(  1 -  1) =     -3.95197  eV     1   --> A_1  G_1 D_1   
     e(  2 -  2) =      1.56408  eV     1   --> B_2  G_4 D_2'  
     e(  3 -  4) =      3.90699  eV     2   --> E    G_5 D_5   
     e(  5 -  5) =      7.04336  eV     1   --> A_1  G_1 D_1   
     e(  6 -  6) =      8.44844  eV     1   --> B_2  G_4 D_2'  
     e(  7 -  8) =     13.18919  eV     2   --> E    G_5 D_5   

 **************************************************************************

 **************************************************************************

                    xk=(   0.66667,   0.00000,   0.00000  )

     Band symmetry, C_4v (4mm)  point group:

     e(  1 -  1) =     -3.77041  eV     1   --> A_1  G_1 D_1   
     e(  2 -  2) =      1.26793  eV     1   --> B_2  G_4 D_2'  
     e(  3 -  4) =      3.81715  eV     2   --> E    G_5 D_5   
     e(  5 -  5) =      6.98110  eV     1   --> A_1  G_1 D_1   
     e(  6 -  6) =      8.24379  eV     1   --> B_2  G_4 D_2'  
     e(  7 -  8) =     13.49613  eV     2   --> E    G_5 D_5   

 **************************************************************************

 **************************************************************************

                    xk=(   0.70000,   0.00000,   0.00000  )

     Band symmetry, C_4v (4mm)  point group:

     e(  1 -  1) =     -3.58055  eV     1   --> A_1  G_1 D_1   
     e(  2 -  2) =      0.97340  eV     1   --> B_2  G_4 D_2'  
     e(  3 -  4) =      3.73545  eV     2   --> E    G_5 D_5   
     e(  5 -  5) =      6.92876  eV     1   --> A_1  G_1 D_1   
     e(  6 -  6) =      8.05271  eV     1   --> B_2  G_4 D_2'  
     e(  7 -  8) =     13.80549  eV     2   --> E    G_5 D_5   

 **************************************************************************

 **************************************************************************

                    xk=(   0.73333,   0.00000,   0.00000  )

     Band symmetry, C_4v (4mm)  point group:

     e(  1 -  1) =     -3.38256  eV     1   --> A_1  G_1 D_1   
     e(  2 -  2) =      0.68091  eV     1   --> B_2  G_4 D_2'  
     e(  3 -  4) =      3.66204  eV     2   --> E    G_5 D_5   
     e(  5 -  5) =      6.88678  eV     1   --> A_1  G_1 D_1   
     e(  6 -  6) =      7.87555  eV     1   --> B_2  G_4 D_2'  
     e(  7 -  8) =     14.11706  eV     2   --> E    G_5 D_5   

 **************************************************************************

 **************************************************************************

                    xk=(   0.76667,   0.00000,   0.00000  )

     Band symmetry, C_4v (4mm)  point group:

     e(  1 -  1) =     -3.17663  eV     1   --> A_1  G_1 D_1   
     e(  2 -  2) =      0.39093  eV     1   --> B_2  G_4 D_2'  
     e(  3 -  4) =      3.59702  eV     2   --> E    G_5 D_5   
     e(  5 -  5) =      6.85551  eV     1   --> A_1  G_1 D_1   
     e(  6 -  6) =      7.71253  eV     1   --> B_2  G_4 D_2'  
     e(  7 -  8) =     14.43058  eV     2   --> E    G_5 D_5   

 **************************************************************************

 **************************************************************************

                    xk=(   0.80000,   0.00000,   0.00000  )

     Band symmetry, C_4v (4mm)  point group:

     e(  1 -  1) =     -2.96297  eV     1   --> A_1  G_1 D_1   
     e(  2 -  2) =      0.10390  eV     1   --> B_2  G_4 D_2'  
     e(  3 -  4) =      3.54050  eV     2   --> E    G_5 D_5   
     e(  5 -  5) =      6.83532  eV     1   --> A_1  G_1 D_1   
     e(  6 -  6) =      7.56371  eV     1   --> B_2  G_4 D_2'  
     e(  7 -  8) =     14.74556  eV     2   --> E    G_5 D_5   

 **************************************************************************

 **************************************************************************

                    xk=(   0.83333,   0.00000,   0.00000  )

     Band symmetry, C_4v (4mm)  point group:

     e(  1 -  1) =     -2.74181  eV     1   --> A_1  G_1 D_1   
     e(  2 -  2) =     -0.17975  eV     1   --> B_2  G_4 D_2'  
     e(  3 -  4) =      3.49254  eV     2   --> E    G_5 D_5   
     e(  5 -  5) =      6.82653  eV     1   --> A_1  G_1 D_1   
     e(  6 -  6) =      7.42908  eV     1   --> B_2  G_4 D_2'  
     e(  7 -  8) =     15.06119  eV     2   --> E    G_5 D_5   

 **************************************************************************

 **************************************************************************

                    xk=(   0.86667,   0.00000,   0.00000  )

     Band symmetry, C_4v (4mm)  point group:

     e(  1 -  1) =     -2.51338  eV     1   --> A_1  G_1 D_1   
     e(  2 -  2) =     -0.45957  eV     1   --> B_2  G_4 D_2'  
     e(  3 -  4) =      3.45322  eV     2   --> E    G_5 D_5   
     e(  5 -  5) =      6.82947  eV     1   --> A_1  G_1 D_1   
     e(  6 -  6) =      7.30855  eV     1   --> B_2  G_4 D_2'  
     e(  7 -  8) =     15.37578  eV     2   --> E    G_5 D_5   

 **************************************************************************

 **************************************************************************

                    xk=(   0.90000,   0.00000,   0.00000  )

     Band symmetry, C_4v (4mm)  point group:

     e(  1 -  1) =     -2.27794  eV     1   --> A_1  G_1 D_1   
     e(  2 -  2) =     -0.73516  eV     1   --> B_2  G_4 D_2'  
     e(  3 -  4) =      3.42259  eV     2   --> E    G_5 D_5   
     e(  5 -  5) =      6.84442  eV     1   --> A_1  G_1 D_1   
     e(  6 -  6) =      7.20200  eV     1   --> B_2  G_4 D_2'  
     e(  7 -  8) =     15.68568  eV     2   --> E    G_5 D_5   

 **************************************************************************

 **************************************************************************

                    xk=(   0.93333,   0.00000,   0.00000  )

     Band symmetry, C_4v (4mm)  point group:

     e(  1 -  1) =     -2.03578  eV     1   --> A_1  G_1 D_1   
     e(  2 -  2) =     -1.00610  eV     1   --> B_2  G_4 D_2'  
     e(  3 -  4) =      3.40069  eV     2   --> E    G_5 D_5   
     e(  5 -  5) =      6.87168  eV     1   --> A_1  G_1 D_1   
     e(  6 -  6) =      7.10923  eV     1   --> B_2  G_4 D_2'  
     e(  7 -  8) =     15.98155  eV     2   --> E    G_5 D_5   

 **************************************************************************

 **************************************************************************

                    xk=(   0.96667,   0.00000,   0.00000  )

     Band symmetry, C_4v (4mm)  point group:

     e(  1 -  1) =     -1.78718  eV     1   --> A_1  G_1 D_1   
     e(  2 -  2) =     -1.27200  eV     1   --> B_2  G_4 D_2'  
     e(  3 -  4) =      3.38753  eV     2   --> E    G_5 D_5   
     e(  5 -  5) =      6.91153  eV     1   --> A_1  G_1 D_1   
     e(  6 -  6) =      7.03006  eV     1   --> B_2  G_4 D_2'  
     e(  7 -  8) =     16.23436  eV     2   --> E    G_5 D_5   

 **************************************************************************

 **************************************************************************

                    xk=(   1.00000,   0.00000,   0.00000  )

     zone border point and non-symmorphic group 
     symmetry decomposition not available

 **************************************************************************

 **************************************************************************

                    xk=(   1.00000,  -0.02500,   0.02500  )

     zone border point and non-symmorphic group 
     symmetry decomposition not available

 **************************************************************************

 **************************************************************************

                    xk=(   1.00000,  -0.05000,   0.05000  )

     zone border point and non-symmorphic group 
     symmetry decomposition not available

 **************************************************************************

 **************************************************************************

                    xk=(   1.00000,  -0.07500,   0.07500  )

     zone border point and non-symmorphic group 
     symmetry decomposition not available

 **************************************************************************

 **************************************************************************

                    xk=(   1.00000,  -0.10000,   0.10000  )

     zone border point and non-symmorphic group 
     symmetry decomposition not available

 **************************************************************************

 **************************************************************************

                    xk=(   1.00000,  -0.12500,   0.12500  )

     zone border point and non-symmorphic group 
     symmetry decomposition not available

 **************************************************************************

 **************************************************************************

                    xk=(   1.00000,  -0.15000,   0.15000  )

     zone border point and non-symmorphic group 
     symmetry decomposition not available

 **************************************************************************

 **************************************************************************

                    xk=(   1.00000,  -0.17500,   0.17500  )

     zone border point and non-symmorphic group 
     symmetry decomposition not available

 **************************************************************************

 **************************************************************************

                    xk=(   1.00000,  -0.20000,   0.20000  )

     zone border point and non-symmorphic group 
     symmetry decomposition not available

 **************************************************************************

 **************************************************************************

                    xk=(   1.00000,  -0.22500,   0.22500  )

     zone border point and non-symmorphic group 
     symmetry decomposition not available

 **************************************************************************

 **************************************************************************

                    xk=(   1.00000,  -0.25000,   0.25000  )

     zone border point and non-symmorphic group 
     symmetry decomposition not available

 **************************************************************************

 **************************************************************************

                    xk=(   0.96667,  -0.24167,   0.24167  )

     point group C_s (m)    
     there are  2 classes
     the character table:

       E     s    
A'     1.00  1.00
A''    1.00 -1.00

     the symmetry operations in each class and the name of the first element:

     E        1
                                                                 
     s        2
                                                                 

     Band symmetry, C_s (m)     point group:

     e(  1 -  1) =     -1.94560  eV     1   --> A'             
     e(  2 -  2) =     -0.94635  eV     1   --> A'             
     e(  3 -  3) =      1.98187  eV     1   --> A'             
     e(  4 -  4) =      3.78641  eV     1   --> A''            
     e(  5 -  5) =      7.43244  eV     1   --> A'             
     e(  6 -  6) =     10.21005  eV     1   --> A'             
     e(  7 -  7) =     13.73224  eV     1   --> A''            
     e(  8 -  8) =     14.12674  eV     1   --> A'             

 **************************************************************************

 **************************************************************************

                    xk=(   0.93333,  -0.23333,   0.23333  )

     Band symmetry, C_s (m)     point group:

     e(  1 -  1) =     -2.03168  eV     1   --> A'             
     e(  2 -  2) =     -0.86992  eV     1   --> A'             
     e(  3 -  3) =      2.05530  eV     1   --> A'             
     e(  4 -  4) =      3.77216  eV     1   --> A''            
     e(  5 -  5) =      7.41908  eV     1   --> A'             
     e(  6 -  6) =     10.06278  eV     1   --> A'             
     e(  7 -  7) =     13.64610  eV     1   --> A''            
     e(  8 -  8) =     13.91075  eV     1   --> A'             

 **************************************************************************

 **************************************************************************

                    xk=(   0.90000,  -0.22500,   0.22500  )

     Band symmetry, C_s (m)     point group:

     e(  1 -  1) =     -2.17774  eV     1   --> A'             
     e(  2 -  2) =     -0.73350  eV     1   --> A'             
     e(  3 -  3) =      2.15286  eV     1   --> A'             
     e(  4 -  4) =      3.76697  eV     1   --> A''            
     e(  5 -  5) =      7.41791  eV     1   --> A'             
     e(  6 -  6) =      9.92968  eV     1   --> A'             
     e(  7 -  7) =     13.51331  eV     1   --> A''            
     e(  8 -  8) =     13.68868  eV     1   --> A'             

 **************************************************************************

 **************************************************************************

                    xk=(   0.86667,  -0.21667,   0.21667  )

     Band symmetry, C_s (m)     point group:

     e(  1 -  1) =     -2.35791  eV     1   --> A'             
     e(  2 -  2) =     -0.55950  eV     1   --> A'             
     e(  3 -  3) =      2.27075  eV     1   --> A'             
     e(  4 -  4) =      3.77096  eV     1   --> A''            
     e(  5 -  5) =      7.42851  eV     1   --> A'             
     e(  6 -  6) =      9.81172  eV     1   --> A'             
     e(  7 -  7) =     13.36365  eV     1   --> A''            
     e(  8 -  8) =     13.46604  eV     1   --> A'             

 **************************************************************************

 **************************************************************************

                    xk=(   0.83333,  -0.20833,   0.20833  )

     Band symmetry, C_s (m)     point group:

     e(  1 -  1) =     -2.55558  eV     1   --> A'             
     e(  2 -  2) =     -0.36175  eV     1   --> A'             
     e(  3 -  3) =      2.40577  eV     1   --> A'             
     e(  4 -  4) =      3.78423  eV     1   --> A''            
     e(  5 -  5) =      7.45024  eV     1   --> A'             
     e(  6 -  6) =      9.70998  eV     1   --> A'             
     e(  7 -  7) =     13.20848  eV     1   --> A''            
     e(  8 -  8) =     13.24416  eV     1   --> A'             

 **************************************************************************

 **************************************************************************

                    xk=(   0.80000,  -0.20000,   0.20000  )

     Band symmetry, C_s (m)     point group:

     e(  1 -  1) =     -2.76133  eV     1   --> A'             
     e(  2 -  2) =     -0.14746  eV     1   --> A'             
     e(  3 -  3) =      2.55518  eV     1   --> A'             
     e(  4 -  4) =      3.80683  eV     1   --> A''            
     e(  5 -  5) =      7.48221  eV     1   --> A'             
     e(  6 -  6) =      9.62578  eV     1   --> A'             
     e(  7 -  7) =     13.02358  eV     1   --> A'             
     e(  8 -  8) =     13.05223  eV     1   --> A''            

 **************************************************************************

 **************************************************************************

                    xk=(   0.76667,  -0.19167,   0.19167  )

     Band symmetry, C_s (m)     point group:

     e(  1 -  1) =     -2.96963  eV     1   --> A'             
     e(  2 -  2) =      0.07956  eV     1   --> A'             
     e(  3 -  3) =      2.71664  eV     1   --> A'             
     e(  4 -  4) =      3.83880  eV     1   --> A''            
     e(  5 -  5) =      7.52322  eV     1   --> A'             
     e(  6 -  6) =      9.56062  eV     1   --> A'             
     e(  7 -  7) =     12.80455  eV     1   --> A'             
     e(  8 -  8) =     12.89646  eV     1   --> A''            

 **************************************************************************

 **************************************************************************

                    xk=(   0.73333,  -0.18333,   0.18333  )

     Band symmetry, C_s (m)     point group:

     e(  1 -  1) =     -3.17699  eV     1   --> A'             
     e(  2 -  2) =      0.31719  eV     1   --> A'             
     e(  3 -  3) =      2.88811  eV     1   --> A'             
     e(  4 -  4) =      3.88014  eV     1   --> A''            
     e(  5 -  5) =      7.57171  eV     1   --> A'             
     e(  6 -  6) =      9.51627  eV     1   --> A'             
     e(  7 -  7) =     12.58729  eV     1   --> A'             
     e(  8 -  8) =     12.74140  eV     1   --> A''            

 **************************************************************************

 **************************************************************************

                    xk=(   0.70000,  -0.17500,   0.17500  )

     Band symmetry, C_s (m)     point group:

     e(  1 -  1) =     -3.38108  eV     1   --> A'             
     e(  2 -  2) =      0.56415  eV     1   --> A'             
     e(  3 -  3) =      3.06775  eV     1   --> A'             
     e(  4 -  4) =      3.93082  eV     1   --> A''            
     e(  5 -  5) =      7.62587  eV     1   --> A'             
     e(  6 -  6) =      9.49466  eV     1   --> A'             
     e(  7 -  7) =     12.37198  eV     1   --> A'             
     e(  8 -  8) =     12.58647  eV     1   --> A''            

 **************************************************************************

 **************************************************************************

                    xk=(   0.66667,  -0.16667,   0.16667  )

     Band symmetry, C_s (m)     point group:

     e(  1 -  1) =     -3.58025  eV     1   --> A'             
     e(  2 -  2) =      0.81964  eV     1   --> A'             
     e(  3 -  3) =      3.25389  eV     1   --> A'             
     e(  4 -  4) =      3.99081  eV     1   --> A''            
     e(  5 -  5) =      7.68365  eV     1   --> A'             
     e(  6 -  6) =      9.49774  eV     1   --> A'             
     e(  7 -  7) =     12.15887  eV     1   --> A'             
     e(  8 -  8) =     12.43061  eV     1   --> A''            

 **************************************************************************

 **************************************************************************

                    xk=(   0.63333,  -0.15833,   0.15833  )

     Band symmetry, C_s (m)     point group:

     e(  1 -  1) =     -3.77330  eV     1   --> A'             
     e(  2 -  2) =      1.08308  eV     1   --> A'             
     e(  3 -  3) =      3.44499  eV     1   --> A'             
     e(  4 -  4) =      4.06002  eV     1   --> A''            
     e(  5 -  5) =      7.74304  eV     1   --> A'             
     e(  6 -  6) =      9.52719  eV     1   --> A'             
     e(  7 -  7) =     11.94835  eV     1   --> A'             
     e(  8 -  8) =     12.27234  eV     1   --> A''            

 **************************************************************************

 **************************************************************************

                    xk=(   0.60000,  -0.15000,   0.15000  )

     Band symmetry, C_s (m)     point group:

     e(  1 -  1) =     -3.95931  eV     1   --> A'             
     e(  2 -  2) =      1.35405  eV     1   --> A'             
     e(  3 -  3) =      3.63962  eV     1   --> A'             
     e(  4 -  4) =      4.13835  eV     1   --> A''            
     e(  5 -  5) =      7.80233  eV     1   --> A'             
     e(  6 -  6) =      9.58399  eV     1   --> A'             
     e(  7 -  7) =     11.74101  eV     1   --> A'             
     e(  8 -  8) =     12.10996  eV     1   --> A''            

 **************************************************************************

 **************************************************************************

                    xk=(   0.56667,  -0.14167,   0.14167  )

     Band symmetry, C_s (m)     point group:

     e(  1 -  1) =     -4.13756  eV     1   --> A'             
     e(  2 -  2) =      1.63219  eV     1   --> A'             
     e(  3 -  3) =      3.83641  eV     1   --> A'             
     e(  4 -  4) =      4.22564  eV     1   --> A''            
     e(  5 -  5) =      7.86039  eV     1   --> A'             
     e(  6 -  6) =      9.66790  eV     1   --> A'             
     e(  7 -  7) =     11.53781  eV     1   --> A'             
     e(  8 -  8) =     11.94164  eV     1   --> A''            

 **************************************************************************

 **************************************************************************

                    xk=(   0.53333,  -0.13333,   0.13333  )

     Band symmetry, C_s (m)     point group:

     e(  1 -  1) =     -4.30747  eV     1   --> A'             
     e(  2 -  2) =      1.91714  eV     1   --> A'             
     e(  3 -  3) =      4.03407  eV     1   --> A'             
     e(  4 -  4) =      4.32171  eV     1   --> A''            
     e(  5 -  5) =      7.91688  eV     1   --> A'             
     e(  6 -  6) =      9.77679  eV     1   --> A'             
     e(  7 -  7) =     11.34046  eV     1   --> A'             
     e(  8 -  8) =     11.76558  eV     1   --> A''            

 **************************************************************************

 **************************************************************************

                    xk=(   0.50000,  -0.12500,   0.12500  )

     Band symmetry, C_s (m)     point group:

     e(  1 -  1) =     -4.46859  eV     1   --> A'             
     e(  2 -  2) =      2.20856  eV     1   --> A'             
     e(  3 -  3) =      4.23139  eV     1   --> A'             
     e(  4 -  4) =      4.42630  eV     1   --> A''            
     e(  5 -  5) =      7.97219  eV     1   --> A'             
     e(  6 -  6) =      9.90558  eV     1   --> A'             
     e(  7 -  7) =     11.15232  eV     1   --> A'             
     e(  8 -  8) =     11.58029  eV     1   --> A''            

 **************************************************************************

 **************************************************************************

                    xk=(   0.46667,  -0.11667,   0.11667  )

     Band symmetry, C_s (m)     point group:

     e(  1 -  1) =     -4.62055  eV     1   --> A'             
     e(  2 -  2) =      2.50605  eV     1   --> A'             
     e(  3 -  3) =      4.42717  eV     1   --> A'             
     e(  4 -  4) =      4.53912  eV     1   --> A''            
     e(  5 -  5) =      8.02723  eV     1   --> A'             
     e(  6 -  6) =     10.04331  eV     1   --> A'             
     e(  7 -  7) =     10.98121  eV     1   --> A'             
     e(  8 -  8) =     11.38476  eV     1   --> A''            

 **************************************************************************

 **************************************************************************

                    xk=(   0.43333,  -0.10833,   0.10833  )

     Band symmetry, C_s (m)     point group:

     e(  1 -  1) =     -4.76301  eV     1   --> A'             
     e(  2 -  2) =      2.80913  eV     1   --> A'             
     e(  3 -  3) =      4.62026  eV     1   --> A'             
     e(  4 -  4) =      4.65977  eV     1   --> A''            
     e(  5 -  5) =      8.08316  eV     1   --> A'             
     e(  6 -  6) =     10.16406  eV     1   --> A'             
     e(  7 -  7) =     10.84823  eV     1   --> A'             
     e(  8 -  8) =     11.17877  eV     1   --> A''            

 **************************************************************************

 **************************************************************************

                    xk=(   0.40000,  -0.10000,   0.10000  )

     Band symmetry, C_s (m)     point group:

     e(  1 -  1) =     -4.89573  eV     1   --> A'             
     e(  2 -  2) =      3.11721  eV     1   --> A'             
     e(  3 -  3) =      4.78774  eV     1   --> A''            
     e(  4 -  4) =      4.80951  eV     1   --> A'             
     e(  5 -  5) =      8.14107  eV     1   --> A'             
     e(  6 -  6) =     10.21115  eV     1   --> A'             
     e(  7 -  7) =     10.80266  eV     1   --> A'             
     e(  8 -  8) =     10.96290  eV     1   --> A''            

 **************************************************************************

 **************************************************************************

                    xk=(   0.36667,  -0.09167,   0.09167  )

     Band symmetry, C_s (m)     point group:

     e(  1 -  1) =     -5.01848  eV     1   --> A'             
     e(  2 -  2) =      3.42956  eV     1   --> A'             
     e(  3 -  3) =      4.92241  eV     1   --> A''            
     e(  4 -  4) =      4.99374  eV     1   --> A'             
     e(  5 -  5) =      8.20180  eV     1   --> A'             
     e(  6 -  6) =     10.14638  eV     1   --> A'             
     e(  7 -  7) =     10.73865  eV     1   --> A''            
     e(  8 -  8) =     10.87069  eV     1   --> A'             

 **************************************************************************

 **************************************************************************

                    xk=(   0.33333,  -0.08333,   0.08333  )

     Band symmetry, C_s (m)     point group:

     e(  1 -  1) =     -5.13108  eV     1   --> A'             
     e(  2 -  2) =      3.74520  eV     1   --> A'             
     e(  3 -  3) =      5.06293  eV     1   --> A''            
     e(  4 -  4) =      5.17173  eV     1   --> A'             
     e(  5 -  5) =      8.26580  eV     1   --> A'             
     e(  6 -  6) =     10.01668  eV     1   --> A'             
     e(  7 -  7) =     10.50826  eV     1   --> A''            
     e(  8 -  8) =     10.98454  eV     1   --> A'             

 **************************************************************************

 **************************************************************************

                    xk=(   0.30000,  -0.07500,   0.07500  )

     Band symmetry, C_s (m)     point group:

     e(  1 -  1) =     -5.23336  eV     1   --> A'             
     e(  2 -  2) =      4.06285  eV     1   --> A'             
     e(  3 -  3) =      5.20824  eV     1   --> A''            
     e(  4 -  4) =      5.34216  eV     1   --> A'             
     e(  5 -  5) =      8.33299  eV     1   --> A'             
     e(  6 -  6) =      9.86552  eV     1   --> A'             
     e(  7 -  7) =     10.27460  eV     1   --> A''            
     e(  8 -  8) =     11.06548  eV     1   --> A'             

 **************************************************************************

 **************************************************************************

                    xk=(   0.26667,  -0.06667,   0.06667  )

     Band symmetry, C_s (m)     point group:

     e(  1 -  1) =     -5.32519  eV     1   --> A'             
     e(  2 -  2) =      4.38075  eV     1   --> A'             
     e(  3 -  3) =      5.35687  eV     1   --> A''            
     e(  4 -  4) =      5.50357  eV     1   --> A'             
     e(  5 -  5) =      8.40277  eV     1   --> A'             
     e(  6 -  6) =      9.70981  eV     1   --> A'             
     e(  7 -  7) =     10.04105  eV     1   --> A''            
     e(  8 -  8) =     11.05286  eV     1   --> A'             

 **************************************************************************

 **************************************************************************

                    xk=(   0.23333,  -0.05833,   0.05833  )

     Band symmetry, C_s (m)     point group:

     e(  1 -  1) =     -5.40645  eV     1   --> A'             
     e(  2 -  2) =      4.69647  eV     1   --> A'             
     e(  3 -  3) =      5.50689  eV     1   --> A''            
     e(  4 -  4) =      5.65435  eV     1   --> A'             
     e(  5 -  5) =      8.47391  eV     1   --> A'             
     e(  6 -  6) =      9.55614  eV     1   --> A'             
     e(  7 -  7) =      9.81148  eV     1   --> A''            
     e(  8 -  8) =     10.92504  eV     1   --> A'             

 **************************************************************************

 **************************************************************************

                    xk=(   0.20000,  -0.05000,   0.05000  )

     Band symmetry, C_s (m)     point group:

     e(  1 -  1) =     -5.47707  eV     1   --> A'             
     e(  2 -  2) =      5.00652  eV     1   --> A'             
     e(  3 -  3) =      5.65566  eV     1   --> A''            
     e(  4 -  4) =      5.79262  eV     1   --> A'             
     e(  5 -  5) =      8.54457  eV     1   --> A'             
     e(  6 -  6) =      9.40763  eV     1   --> A'             
     e(  7 -  7) =      9.59027  eV     1   --> A''            
     e(  8 -  8) =     10.71414  eV     1   --> A'             

 **************************************************************************

 **************************************************************************

                    xk=(   0.16667,  -0.04167,   0.04167  )

     Band symmetry, C_s (m)     point group:

     e(  1 -  1) =     -5.53694  eV     1   --> A'             
     e(  2 -  2) =      5.30577  eV     1   --> A'             
     e(  3 -  3) =      5.79957  eV     1   --> A''            
     e(  4 -  4) =      5.91625  eV     1   --> A'             
     e(  5 -  5) =      8.61230  eV     1   --> A'             
     e(  6 -  6) =      9.26599  eV     1   --> A'             
     e(  7 -  7) =      9.38256  eV     1   --> A''            
     e(  8 -  8) =     10.46779  eV     1   --> A'             

 **************************************************************************

 **************************************************************************

                    xk=(   0.13333,  -0.03333,   0.03333  )

     Band symmetry, C_s (m)     point group:

     e(  1 -  1) =     -5.58601  eV     1   --> A'             
     e(  2 -  2) =      5.58659  eV     1   --> A'             
     e(  3 -  3) =      5.93372  eV     1   --> A''            
     e(  4 -  4) =      6.02283  eV     1   --> A'             
     e(  5 -  5) =      8.67414  eV     1   --> A'             
     e(  6 -  6) =      9.13257  eV     1   --> A'             
     e(  7 -  7) =      9.19455  eV     1   --> A''            
     e(  8 -  8) =     10.22275  eV     1   --> A'             

 **************************************************************************

 **************************************************************************

                    xk=(   0.10000,  -0.02500,   0.02500  )

     Band symmetry, C_s (m)     point group:

     e(  1 -  1) =     -5.62423  eV     1   --> A'             
     e(  2 -  2) =      5.83754  eV     1   --> A'             
     e(  3 -  3) =      6.05164  eV     1   --> A''            
     e(  4 -  4) =      6.10973  eV     1   --> A'             
     e(  5 -  5) =      8.72684  eV     1   --> A'             
     e(  6 -  6) =      9.00981  eV     1   --> A'             
     e(  7 -  7) =      9.03371  eV     1   --> A''            
     e(  8 -  8) =     10.00568  eV     1   --> A'             

 **************************************************************************

 **************************************************************************

                    xk=(   0.06667,  -0.01667,   0.01667  )

     Band symmetry, C_s (m)     point group:

     e(  1 -  1) =     -5.65156  eV     1   --> A'             
     e(  2 -  2) =      6.04210  eV     1   --> A'             
     e(  3 -  3) =      6.14538  eV     1   --> A''            
     e(  4 -  4) =      6.17429  eV     1   --> A'             
     e(  5 -  5) =      8.76721  eV     1   --> A'             
     e(  6 -  6) =      8.90419  eV     1   --> A'             
     e(  7 -  7) =      8.90878  eV     1   --> A''            
     e(  8 -  8) =      9.83710  eV     1   --> A'             

 **************************************************************************

 **************************************************************************

                    xk=(   0.03333,  -0.00833,   0.00833  )

     Band symmetry, C_s (m)     point group:

     e(  1 -  1) =     -5.66796  eV     1   --> A'             
     e(  2 -  2) =      6.17900  eV     1   --> A'             
     e(  3 -  3) =      6.20638  eV     1   --> A''            
     e(  4 -  4) =      6.21415  eV     1   --> A'             
     e(  5 -  5) =      8.79260  eV     1   --> A'             
     e(  6 -  6) =      8.82885  eV     1   --> A''            
     e(  7 -  7) =      8.82905  eV     1   --> A'             
     e(  8 -  8) =      9.73126  eV     1   --> A'             

 **************************************************************************

 **************************************************************************

                    xk=(   0.00000,   0.00000,   0.00000  )

     point group O_h (m-3m) 
     there are 10 classes
     the character table:

       E     8C3   3C2   6C4   6C2'  i     8S6   3s_h  6S4   6s_d 
A_1g   1.00  1.00  1.00  1.00  1.00  1.00  1.00  1.00  1.00  1.00
A_2g   1.00  1.00  1.00 -1.00 -1.00  1.00  1.00  1.00 -1.00 -1.00
E_g    2.00 -1.00  2.00  0.00  0.00  2.00 -1.00  2.00  0.00  0.00
T_1g   3.00  0.00 -1.00  1.00 -1.00  3.00  0.00 -1.00  1.00 -1.00
T_2g   3.00  0.00 -1.00 -1.00  1.00  3.00  0.00 -1.00 -1.00  1.00
A_1u   1.00  1.00  1.00  1.00  1.00 -1.00 -1.00 -1.00 -1.00 -1.00
A_2u   1.00  1.00  1.00 -1.00 -1.00 -1.00 -1.00 -1.00  1.00  1.00
E_u    2.00 -1.00  2.00  0.00  0.00 -2.00  1.00 -2.00  0.00  0.00
T_1u   3.00  0.00 -1.00  1.00 -1.00 -3.00  0.00  1.00 -1.00  1.00
T_2u   3.00  0.00 -1.00 -1.00  1.00 -3.00  0.00  1.00  1.00 -1.00

     the symmetry operations in each class and the name of the first element:

     E        1
                                                                 
     8C3     17   19   20   18   24   21   22   23
                                                                 
     3C2      2    4    3
                                                                 
     6C4      7    8   15   16   12   11
                                                                 
     6C2'     5    6   14   13   10    9
                                                                 
     i       25
                                                                 
     8S6     41   43   44   42   48   45   46   47
                                                                 
     3s_h    26   28   27
                                                                 
     6S4     31   32   39   40   36   35
                                                                 
     6s_d    29   30   38   37   34   33
                                                                 

     Band symmetry, O_h (m-3m)  point group:

     e(  1 -  1) =     -5.67343  eV     1   --> A_1g G_1   G_1+
     e(  2 -  4) =      6.22764  eV     3   --> T_2g G_25' G_5+
     e(  5 -  7) =      8.80125  eV     3   --> T_1u G_15  G_4-
     e(  8 -  8) =      9.69535  eV     1   --> A_2u G_2'  G_2-

 **************************************************************************

     BANDS        :     44.21s CPU     46.41s WALL


   This run was terminated on:  11:55:58   2Nov2020            

=------------------------------------------------------------------------------=
   JOB DONE.
=------------------------------------------------------------------------------=
