
     Program PWSCF v.6.6 starts on 30Nov2020 at 12:23:46 

     This program is part of the open-source Quantum ESPRESSO suite
     for quantum simulation of materials; please cite
         "P. Giannozzi et al., J. Phys.:Condens. Matter 21 395502 (2009);
         "P. Giannozzi et al., J. Phys.:Condens. Matter 29 465901 (2017);
          URL http://www.quantum-espresso.org", 
     in publications or presentations arising from this work. More details at
     http://www.quantum-espresso.org/quote

     Parallel version (MPI & OpenMP), running on       2 processor cores
     Number of MPI processes:                 2
     Threads/MPI process:                     1

     MPI processes distributed on     1 nodes
     R & G space division:  proc/nbgrp/npool/nimage =       2
     Fft bands division:     nmany     =       1
     Waiting for input...
     Reading input from standard input

     Current dimensions of program PWSCF are:
     Max number of different atomic species (ntypx) = 10
     Max number of k-points (npk) =  40000
     Max angular momentum in pseudopotentials (lmaxx) =  3

     Atomic positions and unit cell read from directory:
     ../tmp/Si.save/


     Subspace diagonalization in iterative solution of the eigenvalue problem:
     a serial algorithm will be used

     Message from routine setup:
     no reason to have ecutrho>4*ecutwfc

     Parallelization info
     --------------------
     sticks:   dense  smooth     PW     G-vecs:    dense   smooth      PW
     Min        1293     429    135                43919     8444    1487
     Max        1294     430    136                43924     8445    1488
     Sum        2587     859    271                87843    16889    2975



     bravais-lattice index     =            2
     lattice parameter (alat)  =      10.2625  a.u.
     unit-cell volume          =     270.2088 (a.u.)^3
     number of atoms/cell      =            2
     number of atomic types    =            1
     number of electrons       =         8.00
     number of Kohn-Sham states=            8
     kinetic-energy cutoff     =      60.0000  Ry
     charge density cutoff     =     720.0000  Ry
     Exchange-correlation=  SLA  PW   PBE  PBE
                           (   1   4   3   4   0   0   0)

     celldm(1)=  10.262500  celldm(2)=   0.000000  celldm(3)=   0.000000
     celldm(4)=   0.000000  celldm(5)=   0.000000  celldm(6)=   0.000000

     crystal axes: (cart. coord. in units of alat)
               a(1) = (  -0.500000   0.000000   0.500000 )  
               a(2) = (   0.000000   0.500000   0.500000 )  
               a(3) = (  -0.500000   0.500000   0.000000 )  

     reciprocal axes: (cart. coord. in units 2 pi/alat)
               b(1) = ( -1.000000 -1.000000  1.000000 )  
               b(2) = (  1.000000  1.000000  1.000000 )  
               b(3) = ( -1.000000  1.000000 -1.000000 )  


     PseudoPot. # 1 for Si read from file:
     ../pseudo/Si.pbe-rrkj.UPF
     MD5 check sum: cf7ab5690cd9a85b22c4813f7e365554
     Pseudo is Norm-conserving, Zval =  4.0
     Generated by new atomic code, or converted to UPF format
     Using radial grid of  883 points,  3 beta functions with: 
                l(1) =   0
                l(2) =   0
                l(3) =   1

     atomic species   valence    mass     pseudopotential
        Si             4.00    28.08550     Si( 1.00)

     48 Sym. Ops., with inversion, found (24 have fractional translation)


                                    s                        frac. trans.

      isym =  1     identity                                     

 cryst.   s( 1) = (     1          0          0      )
                  (     0          1          0      )
                  (     0          0          1      )

 cart.    s( 1) = (  1.0000000  0.0000000  0.0000000 )
                  (  0.0000000  1.0000000  0.0000000 )
                  (  0.0000000  0.0000000  1.0000000 )


      isym =  2     180 deg rotation - cart. axis [0,0,1]        

 cryst.   s( 2) = (     0          1         -1      )
                  (     1          0         -1      )
                  (     0          0         -1      )

 cart.    s( 2) = ( -1.0000000  0.0000000  0.0000000 )
                  (  0.0000000 -1.0000000  0.0000000 )
                  (  0.0000000  0.0000000  1.0000000 )


      isym =  3     180 deg rotation - cart. axis [0,1,0]        

 cryst.   s( 3) = (    -1          0          0      )
                  (    -1          0          1      )
                  (    -1          1          0      )

 cart.    s( 3) = ( -1.0000000  0.0000000  0.0000000 )
                  (  0.0000000  1.0000000  0.0000000 )
                  (  0.0000000  0.0000000 -1.0000000 )


      isym =  4     180 deg rotation - cart. axis [1,0,0]        

 cryst.   s( 4) = (     0         -1          1      )
                  (     0         -1          0      )
                  (     1         -1          0      )

 cart.    s( 4) = (  1.0000000  0.0000000  0.0000000 )
                  (  0.0000000 -1.0000000  0.0000000 )
                  (  0.0000000  0.0000000 -1.0000000 )


      isym =  5     180 deg rotation - cart. axis [1,1,0]        

 cryst.   s( 5) = (     0         -1          0      )    f =(  0.2500000 )
                  (    -1          0          0      )       (  0.2500000 )
                  (     0          0         -1      )       (  0.2500000 )

 cart.    s( 5) = (  0.0000000  1.0000000  0.0000000 )    f =( -0.2500000 )
                  (  1.0000000  0.0000000  0.0000000 )       (  0.2500000 )
                  (  0.0000000  0.0000000 -1.0000000 )       (  0.2500000 )


      isym =  6     180 deg rotation - cart. axis [1,-1,0]       

 cryst.   s( 6) = (    -1          0          1      )    f =(  0.2500000 )
                  (     0         -1          1      )       (  0.2500000 )
                  (     0          0          1      )       (  0.2500000 )

 cart.    s( 6) = (  0.0000000 -1.0000000  0.0000000 )    f =( -0.2500000 )
                  ( -1.0000000  0.0000000  0.0000000 )       (  0.2500000 )
                  (  0.0000000  0.0000000 -1.0000000 )       (  0.2500000 )


      isym =  7      90 deg rotation - cart. axis [0,0,-1]       

 cryst.   s( 7) = (     0          1          0      )    f =(  0.2500000 )
                  (     0          1         -1      )       (  0.2500000 )
                  (    -1          1          0      )       (  0.2500000 )

 cart.    s( 7) = (  0.0000000  1.0000000  0.0000000 )    f =( -0.2500000 )
                  ( -1.0000000  0.0000000  0.0000000 )       (  0.2500000 )
                  (  0.0000000  0.0000000  1.0000000 )       (  0.2500000 )


      isym =  8      90 deg rotation - cart. axis [0,0,1]        

 cryst.   s( 8) = (     1          0         -1      )    f =(  0.2500000 )
                  (     1          0          0      )       (  0.2500000 )
                  (     1         -1          0      )       (  0.2500000 )

 cart.    s( 8) = (  0.0000000 -1.0000000  0.0000000 )    f =( -0.2500000 )
                  (  1.0000000  0.0000000  0.0000000 )       (  0.2500000 )
                  (  0.0000000  0.0000000  1.0000000 )       (  0.2500000 )


      isym =  9     180 deg rotation - cart. axis [1,0,1]        

 cryst.   s( 9) = (    -1          0          0      )    f =(  0.2500000 )
                  (     0          0         -1      )       (  0.2500000 )
                  (     0         -1          0      )       (  0.2500000 )

 cart.    s( 9) = (  0.0000000  0.0000000  1.0000000 )    f =( -0.2500000 )
                  (  0.0000000 -1.0000000  0.0000000 )       (  0.2500000 )
                  (  1.0000000  0.0000000  0.0000000 )       (  0.2500000 )


      isym = 10     180 deg rotation - cart. axis [-1,0,1]       

 cryst.   s(10) = (     1          0          0      )    f =(  0.2500000 )
                  (     1         -1          0      )       (  0.2500000 )
                  (     1          0         -1      )       (  0.2500000 )

 cart.    s(10) = (  0.0000000  0.0000000 -1.0000000 )    f =( -0.2500000 )
                  (  0.0000000 -1.0000000  0.0000000 )       (  0.2500000 )
                  ( -1.0000000  0.0000000  0.0000000 )       (  0.2500000 )


      isym = 11      90 deg rotation - cart. axis [0,1,0]        

 cryst.   s(11) = (     0          1         -1      )    f =(  0.2500000 )
                  (    -1          1          0      )       (  0.2500000 )
                  (     0          1          0      )       (  0.2500000 )

 cart.    s(11) = (  0.0000000  0.0000000  1.0000000 )    f =( -0.2500000 )
                  (  0.0000000  1.0000000  0.0000000 )       (  0.2500000 )
                  ( -1.0000000  0.0000000  0.0000000 )       (  0.2500000 )


      isym = 12      90 deg rotation - cart. axis [0,-1,0]       

 cryst.   s(12) = (     0         -1          1      )    f =(  0.2500000 )
                  (     0          0          1      )       (  0.2500000 )
                  (    -1          0          1      )       (  0.2500000 )

 cart.    s(12) = (  0.0000000  0.0000000 -1.0000000 )    f =( -0.2500000 )
                  (  0.0000000  1.0000000  0.0000000 )       (  0.2500000 )
                  (  1.0000000  0.0000000  0.0000000 )       (  0.2500000 )


      isym = 13     180 deg rotation - cart. axis [0,1,1]        

 cryst.   s(13) = (    -1          1          0      )    f =(  0.2500000 )
                  (     0          1          0      )       (  0.2500000 )
                  (     0          1         -1      )       (  0.2500000 )

 cart.    s(13) = ( -1.0000000  0.0000000  0.0000000 )    f =( -0.2500000 )
                  (  0.0000000  0.0000000  1.0000000 )       (  0.2500000 )
                  (  0.0000000  1.0000000  0.0000000 )       (  0.2500000 )


      isym = 14     180 deg rotation - cart. axis [0,1,-1]       

 cryst.   s(14) = (     0          0         -1      )    f =(  0.2500000 )
                  (     0         -1          0      )       (  0.2500000 )
                  (    -1          0          0      )       (  0.2500000 )

 cart.    s(14) = ( -1.0000000  0.0000000  0.0000000 )    f =( -0.2500000 )
                  (  0.0000000  0.0000000 -1.0000000 )       (  0.2500000 )
                  (  0.0000000 -1.0000000  0.0000000 )       (  0.2500000 )


      isym = 15      90 deg rotation - cart. axis [-1,0,0]       

 cryst.   s(15) = (     0          0          1      )    f =(  0.2500000 )
                  (    -1          0          1      )       (  0.2500000 )
                  (     0         -1          1      )       (  0.2500000 )

 cart.    s(15) = (  1.0000000  0.0000000  0.0000000 )    f =( -0.2500000 )
                  (  0.0000000  0.0000000  1.0000000 )       (  0.2500000 )
                  (  0.0000000 -1.0000000  0.0000000 )       (  0.2500000 )


      isym = 16      90 deg rotation - cart. axis [1,0,0]        

 cryst.   s(16) = (     1         -1          0      )    f =(  0.2500000 )
                  (     1          0         -1      )       (  0.2500000 )
                  (     1          0          0      )       (  0.2500000 )

 cart.    s(16) = (  1.0000000  0.0000000  0.0000000 )    f =( -0.2500000 )
                  (  0.0000000  0.0000000 -1.0000000 )       (  0.2500000 )
                  (  0.0000000  1.0000000  0.0000000 )       (  0.2500000 )


      isym = 17     120 deg rotation - cart. axis [-1,-1,-1]     

 cryst.   s(17) = (    -1          0          1      )
                  (    -1          1          0      )
                  (    -1          0          0      )

 cart.    s(17) = (  0.0000000  1.0000000  0.0000000 )
                  (  0.0000000  0.0000000  1.0000000 )
                  (  1.0000000  0.0000000  0.0000000 )


      isym = 18     120 deg rotation - cart. axis [-1,1,1]       

 cryst.   s(18) = (     0          1          0      )
                  (     0          0          1      )
                  (     1          0          0      )

 cart.    s(18) = (  0.0000000 -1.0000000  0.0000000 )
                  (  0.0000000  0.0000000  1.0000000 )
                  ( -1.0000000  0.0000000  0.0000000 )


      isym = 19     120 deg rotation - cart. axis [1,1,-1]       

 cryst.   s(19) = (     1          0         -1      )
                  (     0          0         -1      )
                  (     0          1         -1      )

 cart.    s(19) = (  0.0000000  1.0000000  0.0000000 )
                  (  0.0000000  0.0000000 -1.0000000 )
                  ( -1.0000000  0.0000000  0.0000000 )


      isym = 20     120 deg rotation - cart. axis [1,-1,1]       

 cryst.   s(20) = (     0         -1          0      )
                  (     1         -1          0      )
                  (     0         -1          1      )

 cart.    s(20) = (  0.0000000 -1.0000000  0.0000000 )
                  (  0.0000000  0.0000000 -1.0000000 )
                  (  1.0000000  0.0000000  0.0000000 )


      isym = 21     120 deg rotation - cart. axis [1,1,1]        

 cryst.   s(21) = (     0          0         -1      )
                  (     0          1         -1      )
                  (     1          0         -1      )

 cart.    s(21) = (  0.0000000  0.0000000  1.0000000 )
                  (  1.0000000  0.0000000  0.0000000 )
                  (  0.0000000  1.0000000  0.0000000 )


      isym = 22     120 deg rotation - cart. axis [-1,1,-1]      

 cryst.   s(22) = (    -1          1          0      )
                  (    -1          0          0      )
                  (    -1          0          1      )

 cart.    s(22) = (  0.0000000  0.0000000  1.0000000 )
                  ( -1.0000000  0.0000000  0.0000000 )
                  (  0.0000000 -1.0000000  0.0000000 )


      isym = 23     120 deg rotation - cart. axis [1,-1,-1]      

 cryst.   s(23) = (     0          0          1      )
                  (     1          0          0      )
                  (     0          1          0      )

 cart.    s(23) = (  0.0000000  0.0000000 -1.0000000 )
                  ( -1.0000000  0.0000000  0.0000000 )
                  (  0.0000000  1.0000000  0.0000000 )


      isym = 24     120 deg rotation - cart. axis [-1,-1,1]      

 cryst.   s(24) = (     1         -1          0      )
                  (     0         -1          1      )
                  (     0         -1          0      )

 cart.    s(24) = (  0.0000000  0.0000000 -1.0000000 )
                  (  1.0000000  0.0000000  0.0000000 )
                  (  0.0000000 -1.0000000  0.0000000 )


      isym = 25     inversion                                    

 cryst.   s(25) = (    -1          0          0      )    f =(  0.2500000 )
                  (     0         -1          0      )       (  0.2500000 )
                  (     0          0         -1      )       (  0.2500000 )

 cart.    s(25) = ( -1.0000000  0.0000000  0.0000000 )    f =( -0.2500000 )
                  (  0.0000000 -1.0000000  0.0000000 )       (  0.2500000 )
                  (  0.0000000  0.0000000 -1.0000000 )       (  0.2500000 )


      isym = 26     inv. 180 deg rotation - cart. axis [0,0,1]   

 cryst.   s(26) = (     0         -1          1      )    f =(  0.2500000 )
                  (    -1          0          1      )       (  0.2500000 )
                  (     0          0          1      )       (  0.2500000 )

 cart.    s(26) = (  1.0000000  0.0000000  0.0000000 )    f =( -0.2500000 )
                  (  0.0000000  1.0000000  0.0000000 )       (  0.2500000 )
                  (  0.0000000  0.0000000 -1.0000000 )       (  0.2500000 )


      isym = 27     inv. 180 deg rotation - cart. axis [0,1,0]   

 cryst.   s(27) = (     1          0          0      )    f =(  0.2500000 )
                  (     1          0         -1      )       (  0.2500000 )
                  (     1         -1          0      )       (  0.2500000 )

 cart.    s(27) = (  1.0000000  0.0000000  0.0000000 )    f =( -0.2500000 )
                  (  0.0000000 -1.0000000  0.0000000 )       (  0.2500000 )
                  (  0.0000000  0.0000000  1.0000000 )       (  0.2500000 )


      isym = 28     inv. 180 deg rotation - cart. axis [1,0,0]   

 cryst.   s(28) = (     0          1         -1      )    f =(  0.2500000 )
                  (     0          1          0      )       (  0.2500000 )
                  (    -1          1          0      )       (  0.2500000 )

 cart.    s(28) = ( -1.0000000  0.0000000  0.0000000 )    f =( -0.2500000 )
                  (  0.0000000  1.0000000  0.0000000 )       (  0.2500000 )
                  (  0.0000000  0.0000000  1.0000000 )       (  0.2500000 )


      isym = 29     inv. 180 deg rotation - cart. axis [1,1,0]   

 cryst.   s(29) = (     0          1          0      )
                  (     1          0          0      )
                  (     0          0          1      )

 cart.    s(29) = (  0.0000000 -1.0000000  0.0000000 )
                  ( -1.0000000  0.0000000  0.0000000 )
                  (  0.0000000  0.0000000  1.0000000 )


      isym = 30     inv. 180 deg rotation - cart. axis [1,-1,0]  

 cryst.   s(30) = (     1          0         -1      )
                  (     0          1         -1      )
                  (     0          0         -1      )

 cart.    s(30) = (  0.0000000  1.0000000  0.0000000 )
                  (  1.0000000  0.0000000  0.0000000 )
                  (  0.0000000  0.0000000  1.0000000 )


      isym = 31     inv.  90 deg rotation - cart. axis [0,0,-1]  

 cryst.   s(31) = (     0         -1          0      )
                  (     0         -1          1      )
                  (     1         -1          0      )

 cart.    s(31) = (  0.0000000 -1.0000000  0.0000000 )
                  (  1.0000000  0.0000000  0.0000000 )
                  (  0.0000000  0.0000000 -1.0000000 )


      isym = 32     inv.  90 deg rotation - cart. axis [0,0,1]   

 cryst.   s(32) = (    -1          0          1      )
                  (    -1          0          0      )
                  (    -1          1          0      )

 cart.    s(32) = (  0.0000000  1.0000000  0.0000000 )
                  ( -1.0000000  0.0000000  0.0000000 )
                  (  0.0000000  0.0000000 -1.0000000 )


      isym = 33     inv. 180 deg rotation - cart. axis [1,0,1]   

 cryst.   s(33) = (     1          0          0      )
                  (     0          0          1      )
                  (     0          1          0      )

 cart.    s(33) = (  0.0000000  0.0000000 -1.0000000 )
                  (  0.0000000  1.0000000  0.0000000 )
                  ( -1.0000000  0.0000000  0.0000000 )


      isym = 34     inv. 180 deg rotation - cart. axis [-1,0,1]  

 cryst.   s(34) = (    -1          0          0      )
                  (    -1          1          0      )
                  (    -1          0          1      )

 cart.    s(34) = (  0.0000000  0.0000000  1.0000000 )
                  (  0.0000000  1.0000000  0.0000000 )
                  (  1.0000000  0.0000000  0.0000000 )


      isym = 35     inv.  90 deg rotation - cart. axis [0,1,0]   

 cryst.   s(35) = (     0         -1          1      )
                  (     1         -1          0      )
                  (     0         -1          0      )

 cart.    s(35) = (  0.0000000  0.0000000 -1.0000000 )
                  (  0.0000000 -1.0000000  0.0000000 )
                  (  1.0000000  0.0000000  0.0000000 )


      isym = 36     inv.  90 deg rotation - cart. axis [0,-1,0]  

 cryst.   s(36) = (     0          1         -1      )
                  (     0          0         -1      )
                  (     1          0         -1      )

 cart.    s(36) = (  0.0000000  0.0000000  1.0000000 )
                  (  0.0000000 -1.0000000  0.0000000 )
                  ( -1.0000000  0.0000000  0.0000000 )


      isym = 37     inv. 180 deg rotation - cart. axis [0,1,1]   

 cryst.   s(37) = (     1         -1          0      )
                  (     0         -1          0      )
                  (     0         -1          1      )

 cart.    s(37) = (  1.0000000  0.0000000  0.0000000 )
                  (  0.0000000  0.0000000 -1.0000000 )
                  (  0.0000000 -1.0000000  0.0000000 )


      isym = 38     inv. 180 deg rotation - cart. axis [0,1,-1]  

 cryst.   s(38) = (     0          0          1      )
                  (     0          1          0      )
                  (     1          0          0      )

 cart.    s(38) = (  1.0000000  0.0000000  0.0000000 )
                  (  0.0000000  0.0000000  1.0000000 )
                  (  0.0000000  1.0000000  0.0000000 )


      isym = 39     inv.  90 deg rotation - cart. axis [-1,0,0]  

 cryst.   s(39) = (     0          0         -1      )
                  (     1          0         -1      )
                  (     0          1         -1      )

 cart.    s(39) = ( -1.0000000  0.0000000  0.0000000 )
                  (  0.0000000  0.0000000 -1.0000000 )
                  (  0.0000000  1.0000000  0.0000000 )


      isym = 40     inv.  90 deg rotation - cart. axis [1,0,0]   

 cryst.   s(40) = (    -1          1          0      )
                  (    -1          0          1      )
                  (    -1          0          0      )

 cart.    s(40) = ( -1.0000000  0.0000000  0.0000000 )
                  (  0.0000000  0.0000000  1.0000000 )
                  (  0.0000000 -1.0000000  0.0000000 )


      isym = 41     inv. 120 deg rotation - cart. axis [-1,-1,-1]

 cryst.   s(41) = (     1          0         -1      )    f =(  0.2500000 )
                  (     1         -1          0      )       (  0.2500000 )
                  (     1          0          0      )       (  0.2500000 )

 cart.    s(41) = (  0.0000000 -1.0000000  0.0000000 )    f =( -0.2500000 )
                  (  0.0000000  0.0000000 -1.0000000 )       (  0.2500000 )
                  ( -1.0000000  0.0000000  0.0000000 )       (  0.2500000 )


      isym = 42     inv. 120 deg rotation - cart. axis [-1,1,1]  

 cryst.   s(42) = (     0         -1          0      )    f =(  0.2500000 )
                  (     0          0         -1      )       (  0.2500000 )
                  (    -1          0          0      )       (  0.2500000 )

 cart.    s(42) = (  0.0000000  1.0000000  0.0000000 )    f =( -0.2500000 )
                  (  0.0000000  0.0000000 -1.0000000 )       (  0.2500000 )
                  (  1.0000000  0.0000000  0.0000000 )       (  0.2500000 )


      isym = 43     inv. 120 deg rotation - cart. axis [1,1,-1]  

 cryst.   s(43) = (    -1          0          1      )    f =(  0.2500000 )
                  (     0          0          1      )       (  0.2500000 )
                  (     0         -1          1      )       (  0.2500000 )

 cart.    s(43) = (  0.0000000 -1.0000000  0.0000000 )    f =( -0.2500000 )
                  (  0.0000000  0.0000000  1.0000000 )       (  0.2500000 )
                  (  1.0000000  0.0000000  0.0000000 )       (  0.2500000 )


      isym = 44     inv. 120 deg rotation - cart. axis [1,-1,1]  

 cryst.   s(44) = (     0          1          0      )    f =(  0.2500000 )
                  (    -1          1          0      )       (  0.2500000 )
                  (     0          1         -1      )       (  0.2500000 )

 cart.    s(44) = (  0.0000000  1.0000000  0.0000000 )    f =( -0.2500000 )
                  (  0.0000000  0.0000000  1.0000000 )       (  0.2500000 )
                  ( -1.0000000  0.0000000  0.0000000 )       (  0.2500000 )


      isym = 45     inv. 120 deg rotation - cart. axis [1,1,1]   

 cryst.   s(45) = (     0          0          1      )    f =(  0.2500000 )
                  (     0         -1          1      )       (  0.2500000 )
                  (    -1          0          1      )       (  0.2500000 )

 cart.    s(45) = (  0.0000000  0.0000000 -1.0000000 )    f =( -0.2500000 )
                  ( -1.0000000  0.0000000  0.0000000 )       (  0.2500000 )
                  (  0.0000000 -1.0000000  0.0000000 )       (  0.2500000 )


      isym = 46     inv. 120 deg rotation - cart. axis [-1,1,-1] 

 cryst.   s(46) = (     1         -1          0      )    f =(  0.2500000 )
                  (     1          0          0      )       (  0.2500000 )
                  (     1          0         -1      )       (  0.2500000 )

 cart.    s(46) = (  0.0000000  0.0000000 -1.0000000 )    f =( -0.2500000 )
                  (  1.0000000  0.0000000  0.0000000 )       (  0.2500000 )
                  (  0.0000000  1.0000000  0.0000000 )       (  0.2500000 )


      isym = 47     inv. 120 deg rotation - cart. axis [1,-1,-1] 

 cryst.   s(47) = (     0          0         -1      )    f =(  0.2500000 )
                  (    -1          0          0      )       (  0.2500000 )
                  (     0         -1          0      )       (  0.2500000 )

 cart.    s(47) = (  0.0000000  0.0000000  1.0000000 )    f =( -0.2500000 )
                  (  1.0000000  0.0000000  0.0000000 )       (  0.2500000 )
                  (  0.0000000 -1.0000000  0.0000000 )       (  0.2500000 )


      isym = 48     inv. 120 deg rotation - cart. axis [-1,-1,1] 

 cryst.   s(48) = (    -1          1          0      )    f =(  0.2500000 )
                  (     0          1         -1      )       (  0.2500000 )
                  (     0          1          0      )       (  0.2500000 )

 cart.    s(48) = (  0.0000000  0.0000000  1.0000000 )    f =( -0.2500000 )
                  ( -1.0000000  0.0000000  0.0000000 )       (  0.2500000 )
                  (  0.0000000  1.0000000  0.0000000 )       (  0.2500000 )


     point group O_h (m-3m) 
     there are 10 classes
     the character table:

       E     8C3   3C2   6C4   6C2'  i     8S6   3s_h  6S4   6s_d 
A_1g   1.00  1.00  1.00  1.00  1.00  1.00  1.00  1.00  1.00  1.00
A_2g   1.00  1.00  1.00 -1.00 -1.00  1.00  1.00  1.00 -1.00 -1.00
E_g    2.00 -1.00  2.00  0.00  0.00  2.00 -1.00  2.00  0.00  0.00
T_1g   3.00  0.00 -1.00  1.00 -1.00  3.00  0.00 -1.00  1.00 -1.00
T_2g   3.00  0.00 -1.00 -1.00  1.00  3.00  0.00 -1.00 -1.00  1.00
A_1u   1.00  1.00  1.00  1.00  1.00 -1.00 -1.00 -1.00 -1.00 -1.00
A_2u   1.00  1.00  1.00 -1.00 -1.00 -1.00 -1.00 -1.00  1.00  1.00
E_u    2.00 -1.00  2.00  0.00  0.00 -2.00  1.00 -2.00  0.00  0.00
T_1u   3.00  0.00 -1.00  1.00 -1.00 -3.00  0.00  1.00 -1.00  1.00
T_2u   3.00  0.00 -1.00 -1.00  1.00 -3.00  0.00  1.00  1.00 -1.00

     the symmetry operations in each class and the name of the first element:

     E        1
          identity                                               
     8C3     17   19   20   18   24   21   22   23
          120 deg rotation - cart. axis [-1,-1,-1]               
     3C2      2    4    3
          180 deg rotation - cart. axis [0,0,1]                  
     6C4      7    8   15   16   12   11
           90 deg rotation - cart. axis [0,0,-1]                 
     6C2'     5    6   14   13   10    9
          180 deg rotation - cart. axis [1,1,0]                  
     i       25
          inversion                                              
     8S6     41   43   44   42   48   45   46   47
          inv. 120 deg rotation - cart. axis [-1,-1,-1]          
     3s_h    26   28   27
          inv. 180 deg rotation - cart. axis [0,0,1]             
     6S4     31   32   39   40   36   35
          inv.  90 deg rotation - cart. axis [0,0,-1]            
     6s_d    29   30   38   37   34   33
          inv. 180 deg rotation - cart. axis [1,1,0]             

   Cartesian axes

     site n.     atom                  positions (alat units)
         1           Si  tau(   1) = (   0.0000000   0.0000000   0.0000000  )
         2           Si  tau(   2) = (   0.2500000   0.2500000   0.2500000  )

   Crystallographic axes

     site n.     atom                  positions (cryst. coord.)
         1           Si  tau(   1) = (  0.0000000  0.0000000  0.0000000  )
         2           Si  tau(   2) = ( -0.2500000  0.7500000 -0.2500000  )

     number of k points=   182  Gaussian smearing, width (Ry)=  0.0050
                       cart. coord. in units 2pi/alat
        k(    1) = (  -0.0416667   0.0416667   0.0416667), wk =   0.0023148
        k(    2) = (  -0.1250000   0.1250000  -0.0416667), wk =   0.0069444
        k(    3) = (  -0.2083333   0.2083333  -0.1250000), wk =   0.0069444
        k(    4) = (  -0.2916667   0.2916667  -0.2083333), wk =   0.0069444
        k(    5) = (  -0.3750000   0.3750000  -0.2916667), wk =   0.0069444
        k(    6) = (  -0.4583333   0.4583333  -0.3750000), wk =   0.0069444
        k(    7) = (   0.4583333  -0.4583333   0.5416667), wk =   0.0069444
        k(    8) = (   0.3750000  -0.3750000   0.4583333), wk =   0.0069444
        k(    9) = (   0.2916667  -0.2916667   0.3750000), wk =   0.0069444
        k(   10) = (   0.2083333  -0.2083333   0.2916667), wk =   0.0069444
        k(   11) = (   0.1250000  -0.1250000   0.2083333), wk =   0.0069444
        k(   12) = (   0.0416667  -0.0416667   0.1250000), wk =   0.0069444
        k(   13) = (  -0.0416667   0.2083333   0.0416667), wk =   0.0069444
        k(   14) = (  -0.1250000   0.2916667  -0.0416667), wk =   0.0138889
        k(   15) = (  -0.2083333   0.3750000  -0.1250000), wk =   0.0138889
        k(   16) = (  -0.2916667   0.4583333  -0.2083333), wk =   0.0138889
        k(   17) = (  -0.3750000   0.5416667  -0.2916667), wk =   0.0138889
        k(   18) = (   0.5416667  -0.3750000   0.6250000), wk =   0.0138889
        k(   19) = (   0.4583333  -0.2916667   0.5416667), wk =   0.0138889
        k(   20) = (   0.3750000  -0.2083333   0.4583333), wk =   0.0138889
        k(   21) = (   0.2916667  -0.1250000   0.3750000), wk =   0.0138889
        k(   22) = (   0.2083333  -0.0416667   0.2916667), wk =   0.0138889
        k(   23) = (   0.1250000   0.0416667   0.2083333), wk =   0.0138889
        k(   24) = (  -0.0416667   0.3750000   0.0416667), wk =   0.0069444
        k(   25) = (  -0.1250000   0.4583333  -0.0416667), wk =   0.0138889
        k(   26) = (  -0.2083333   0.5416667  -0.1250000), wk =   0.0138889
        k(   27) = (  -0.2916667   0.6250000  -0.2083333), wk =   0.0138889
        k(   28) = (   0.6250000  -0.2916667   0.7083333), wk =   0.0138889
        k(   29) = (   0.5416667  -0.2083333   0.6250000), wk =   0.0138889
        k(   30) = (   0.4583333  -0.1250000   0.5416667), wk =   0.0138889
        k(   31) = (   0.3750000  -0.0416667   0.4583333), wk =   0.0138889
        k(   32) = (   0.2916667   0.0416667   0.3750000), wk =   0.0138889
        k(   33) = (   0.2083333   0.1250000   0.2916667), wk =   0.0138889
        k(   34) = (  -0.0416667   0.5416667   0.0416667), wk =   0.0069444
        k(   35) = (  -0.1250000   0.6250000  -0.0416667), wk =   0.0138889
        k(   36) = (  -0.2083333   0.7083333  -0.1250000), wk =   0.0138889
        k(   37) = (   0.7083333  -0.2083333   0.7916667), wk =   0.0138889
        k(   38) = (   0.6250000  -0.1250000   0.7083333), wk =   0.0138889
        k(   39) = (   0.5416667  -0.0416667   0.6250000), wk =   0.0138889
        k(   40) = (   0.4583333   0.0416667   0.5416667), wk =   0.0138889
        k(   41) = (   0.3750000   0.1250000   0.4583333), wk =   0.0138889
        k(   42) = (   0.2916667   0.2083333   0.3750000), wk =   0.0138889
        k(   43) = (  -0.0416667   0.7083333   0.0416667), wk =   0.0069444
        k(   44) = (  -0.1250000   0.7916667  -0.0416667), wk =   0.0138889
        k(   45) = (   0.7916667  -0.1250000   0.8750000), wk =   0.0138889
        k(   46) = (   0.7083333  -0.0416667   0.7916667), wk =   0.0138889
        k(   47) = (   0.6250000   0.0416667   0.7083333), wk =   0.0138889
        k(   48) = (   0.5416667   0.1250000   0.6250000), wk =   0.0138889
        k(   49) = (   0.4583333   0.2083333   0.5416667), wk =   0.0138889
        k(   50) = (   0.3750000   0.2916667   0.4583333), wk =   0.0138889
        k(   51) = (  -0.0416667   0.8750000   0.0416667), wk =   0.0069444
        k(   52) = (   0.8750000  -0.0416667   0.9583333), wk =   0.0138889
        k(   53) = (   0.7916667   0.0416667   0.8750000), wk =   0.0138889
        k(   54) = (   0.7083333   0.1250000   0.7916667), wk =   0.0138889
        k(   55) = (   0.6250000   0.2083333   0.7083333), wk =   0.0138889
        k(   56) = (   0.5416667   0.2916667   0.6250000), wk =   0.0138889
        k(   57) = (   0.4583333   0.3750000   0.5416667), wk =   0.0138889
        k(   58) = (  -0.0416667  -0.9583333   0.0416667), wk =   0.0069444
        k(   59) = (  -0.1250000  -0.8750000  -0.0416667), wk =   0.0138889
        k(   60) = (  -0.2083333  -0.7916667  -0.1250000), wk =   0.0138889
        k(   61) = (  -0.2916667  -0.7083333  -0.2083333), wk =   0.0138889
        k(   62) = (  -0.3750000  -0.6250000  -0.2916667), wk =   0.0138889
        k(   63) = (  -0.0416667  -0.7916667   0.0416667), wk =   0.0069444
        k(   64) = (  -0.1250000  -0.7083333  -0.0416667), wk =   0.0138889
        k(   65) = (  -0.2083333  -0.6250000  -0.1250000), wk =   0.0138889
        k(   66) = (  -0.2916667  -0.5416667  -0.2083333), wk =   0.0138889
        k(   67) = (  -0.0416667  -0.6250000   0.0416667), wk =   0.0069444
        k(   68) = (  -0.1250000  -0.5416667  -0.0416667), wk =   0.0138889
        k(   69) = (  -0.2083333  -0.4583333  -0.1250000), wk =   0.0138889
        k(   70) = (  -0.0416667  -0.4583333   0.0416667), wk =   0.0069444
        k(   71) = (  -0.1250000  -0.3750000  -0.0416667), wk =   0.0138889
        k(   72) = (  -0.0416667  -0.2916667   0.0416667), wk =   0.0069444
        k(   73) = (  -0.1250000   0.1250000   0.1250000), wk =   0.0023148
        k(   74) = (  -0.2083333   0.2083333   0.0416667), wk =   0.0069444
        k(   75) = (  -0.2916667   0.2916667  -0.0416667), wk =   0.0069444
        k(   76) = (  -0.3750000   0.3750000  -0.1250000), wk =   0.0069444
        k(   77) = (  -0.4583333   0.4583333  -0.2083333), wk =   0.0069444
        k(   78) = (   0.4583333  -0.4583333   0.7083333), wk =   0.0069444
        k(   79) = (   0.3750000  -0.3750000   0.6250000), wk =   0.0069444
        k(   80) = (   0.2916667  -0.2916667   0.5416667), wk =   0.0069444
        k(   81) = (   0.2083333  -0.2083333   0.4583333), wk =   0.0069444
        k(   82) = (   0.1250000  -0.1250000   0.3750000), wk =   0.0069444
        k(   83) = (  -0.1250000   0.2916667   0.1250000), wk =   0.0069444
        k(   84) = (  -0.2083333   0.3750000   0.0416667), wk =   0.0138889
        k(   85) = (  -0.2916667   0.4583333  -0.0416667), wk =   0.0138889
        k(   86) = (  -0.3750000   0.5416667  -0.1250000), wk =   0.0138889
        k(   87) = (   0.5416667  -0.3750000   0.7916667), wk =   0.0138889
        k(   88) = (   0.4583333  -0.2916667   0.7083333), wk =   0.0138889
        k(   89) = (   0.3750000  -0.2083333   0.6250000), wk =   0.0138889
        k(   90) = (   0.2916667  -0.1250000   0.5416667), wk =   0.0138889
        k(   91) = (   0.2083333  -0.0416667   0.4583333), wk =   0.0138889
        k(   92) = (  -0.1250000   0.4583333   0.1250000), wk =   0.0069444
        k(   93) = (  -0.2083333   0.5416667   0.0416667), wk =   0.0138889
        k(   94) = (  -0.2916667   0.6250000  -0.0416667), wk =   0.0138889
        k(   95) = (   0.6250000  -0.2916667   0.8750000), wk =   0.0138889
        k(   96) = (   0.5416667  -0.2083333   0.7916667), wk =   0.0138889
        k(   97) = (   0.4583333  -0.1250000   0.7083333), wk =   0.0138889
        k(   98) = (   0.3750000  -0.0416667   0.6250000), wk =   0.0138889
        k(   99) = (   0.2916667   0.0416667   0.5416667), wk =   0.0138889
        k(  100) = (  -0.1250000   0.6250000   0.1250000), wk =   0.0069444
        k(  101) = (  -0.2083333   0.7083333   0.0416667), wk =   0.0138889
        k(  102) = (   0.7083333  -0.2083333   0.9583333), wk =   0.0138889
        k(  103) = (   0.6250000  -0.1250000   0.8750000), wk =   0.0138889
        k(  104) = (   0.5416667  -0.0416667   0.7916667), wk =   0.0138889
        k(  105) = (   0.4583333   0.0416667   0.7083333), wk =   0.0138889
        k(  106) = (   0.3750000   0.1250000   0.6250000), wk =   0.0138889
        k(  107) = (  -0.1250000   0.7916667   0.1250000), wk =   0.0069444
        k(  108) = (   0.7916667  -0.1250000   1.0416667), wk =   0.0138889
        k(  109) = (   0.7083333  -0.0416667   0.9583333), wk =   0.0138889
        k(  110) = (   0.6250000   0.0416667   0.8750000), wk =   0.0138889
        k(  111) = (   0.5416667   0.1250000   0.7916667), wk =   0.0138889
        k(  112) = (   0.4583333   0.2083333   0.7083333), wk =   0.0138889
        k(  113) = (  -0.1250000  -1.0416667   0.1250000), wk =   0.0069444
        k(  114) = (  -0.2083333  -0.9583333   0.0416667), wk =   0.0138889
        k(  115) = (  -0.2916667  -0.8750000  -0.0416667), wk =   0.0138889
        k(  116) = (  -0.3750000  -0.7916667  -0.1250000), wk =   0.0138889
        k(  117) = (  -0.1250000  -0.8750000   0.1250000), wk =   0.0069444
        k(  118) = (  -0.2083333  -0.7916667   0.0416667), wk =   0.0138889
        k(  119) = (  -0.2916667  -0.7083333  -0.0416667), wk =   0.0138889
        k(  120) = (  -0.1250000  -0.7083333   0.1250000), wk =   0.0069444
        k(  121) = (  -0.2083333  -0.6250000   0.0416667), wk =   0.0138889
        k(  122) = (  -0.1250000  -0.5416667   0.1250000), wk =   0.0069444
        k(  123) = (  -0.2083333   0.2083333   0.2083333), wk =   0.0023148
        k(  124) = (  -0.2916667   0.2916667   0.1250000), wk =   0.0069444
        k(  125) = (  -0.3750000   0.3750000   0.0416667), wk =   0.0069444
        k(  126) = (  -0.4583333   0.4583333  -0.0416667), wk =   0.0069444
        k(  127) = (   0.4583333  -0.4583333   0.8750000), wk =   0.0069444
        k(  128) = (   0.3750000  -0.3750000   0.7916667), wk =   0.0069444
        k(  129) = (   0.2916667  -0.2916667   0.7083333), wk =   0.0069444
        k(  130) = (   0.2083333  -0.2083333   0.6250000), wk =   0.0069444
        k(  131) = (  -0.2083333   0.3750000   0.2083333), wk =   0.0069444
        k(  132) = (  -0.2916667   0.4583333   0.1250000), wk =   0.0138889
        k(  133) = (  -0.3750000   0.5416667   0.0416667), wk =   0.0138889
        k(  134) = (   0.5416667  -0.3750000   0.9583333), wk =   0.0138889
        k(  135) = (   0.4583333  -0.2916667   0.8750000), wk =   0.0138889
        k(  136) = (   0.3750000  -0.2083333   0.7916667), wk =   0.0138889
        k(  137) = (   0.2916667  -0.1250000   0.7083333), wk =   0.0138889
        k(  138) = (  -0.2083333   0.5416667   0.2083333), wk =   0.0069444
        k(  139) = (  -0.2916667   0.6250000   0.1250000), wk =   0.0138889
        k(  140) = (   0.6250000  -0.2916667   1.0416667), wk =   0.0138889
        k(  141) = (   0.5416667  -0.2083333   0.9583333), wk =   0.0138889
        k(  142) = (   0.4583333  -0.1250000   0.8750000), wk =   0.0138889
        k(  143) = (   0.3750000  -0.0416667   0.7916667), wk =   0.0138889
        k(  144) = (  -0.2083333   0.7083333   0.2083333), wk =   0.0069444
        k(  145) = (   0.7083333  -0.2083333   1.1250000), wk =   0.0138889
        k(  146) = (   0.6250000  -0.1250000   1.0416667), wk =   0.0138889
        k(  147) = (   0.5416667  -0.0416667   0.9583333), wk =   0.0138889
        k(  148) = (   0.4583333   0.0416667   0.8750000), wk =   0.0138889
        k(  149) = (  -0.2083333  -1.1250000   0.2083333), wk =   0.0069444
        k(  150) = (  -0.2916667  -1.0416667   0.1250000), wk =   0.0138889
        k(  151) = (  -0.3750000  -0.9583333   0.0416667), wk =   0.0138889
        k(  152) = (  -0.2083333  -0.9583333   0.2083333), wk =   0.0069444
        k(  153) = (  -0.2916667  -0.8750000   0.1250000), wk =   0.0138889
        k(  154) = (  -0.2083333  -0.7916667   0.2083333), wk =   0.0069444
        k(  155) = (  -0.2916667   0.2916667   0.2916667), wk =   0.0023148
        k(  156) = (  -0.3750000   0.3750000   0.2083333), wk =   0.0069444
        k(  157) = (  -0.4583333   0.4583333   0.1250000), wk =   0.0069444
        k(  158) = (   0.4583333  -0.4583333   1.0416667), wk =   0.0069444
        k(  159) = (   0.3750000  -0.3750000   0.9583333), wk =   0.0069444
        k(  160) = (   0.2916667  -0.2916667   0.8750000), wk =   0.0069444
        k(  161) = (  -0.2916667   0.4583333   0.2916667), wk =   0.0069444
        k(  162) = (  -0.3750000   0.5416667   0.2083333), wk =   0.0138889
        k(  163) = (   0.5416667  -0.3750000   1.1250000), wk =   0.0138889
        k(  164) = (   0.4583333  -0.2916667   1.0416667), wk =   0.0138889
        k(  165) = (   0.3750000  -0.2083333   0.9583333), wk =   0.0138889
        k(  166) = (  -0.2916667   0.6250000   0.2916667), wk =   0.0069444
        k(  167) = (   0.6250000  -0.2916667   1.2083333), wk =   0.0138889
        k(  168) = (   0.5416667  -0.2083333   1.1250000), wk =   0.0138889
        k(  169) = (   0.4583333  -0.1250000   1.0416667), wk =   0.0138889
        k(  170) = (  -0.2916667  -1.2083333   0.2916667), wk =   0.0069444
        k(  171) = (  -0.3750000  -1.1250000   0.2083333), wk =   0.0138889
        k(  172) = (  -0.2916667  -1.0416667   0.2916667), wk =   0.0069444
        k(  173) = (  -0.3750000   0.3750000   0.3750000), wk =   0.0023148
        k(  174) = (  -0.4583333   0.4583333   0.2916667), wk =   0.0069444
        k(  175) = (   0.4583333  -0.4583333   1.2083333), wk =   0.0069444
        k(  176) = (   0.3750000  -0.3750000   1.1250000), wk =   0.0069444
        k(  177) = (  -0.3750000   0.5416667   0.3750000), wk =   0.0069444
        k(  178) = (   0.5416667  -0.3750000   1.2916667), wk =   0.0138889
        k(  179) = (   0.4583333  -0.2916667   1.2083333), wk =   0.0138889
        k(  180) = (  -0.3750000  -1.2916667   0.3750000), wk =   0.0069444
        k(  181) = (  -0.4583333   0.4583333   0.4583333), wk =   0.0023148
        k(  182) = (   0.4583333  -0.4583333   1.3750000), wk =   0.0069444

                       cryst. coord.
        k(    1) = (   0.0416667   0.0416667   0.0416667), wk =   0.0023148
        k(    2) = (   0.0416667   0.0416667   0.1250000), wk =   0.0069444
        k(    3) = (   0.0416667   0.0416667   0.2083333), wk =   0.0069444
        k(    4) = (   0.0416667   0.0416667   0.2916667), wk =   0.0069444
        k(    5) = (   0.0416667   0.0416667   0.3750000), wk =   0.0069444
        k(    6) = (   0.0416667   0.0416667   0.4583333), wk =   0.0069444
        k(    7) = (   0.0416667   0.0416667  -0.4583333), wk =   0.0069444
        k(    8) = (   0.0416667   0.0416667  -0.3750000), wk =   0.0069444
        k(    9) = (   0.0416667   0.0416667  -0.2916667), wk =   0.0069444
        k(   10) = (   0.0416667   0.0416667  -0.2083333), wk =   0.0069444
        k(   11) = (   0.0416667   0.0416667  -0.1250000), wk =   0.0069444
        k(   12) = (   0.0416667   0.0416667  -0.0416667), wk =   0.0069444
        k(   13) = (   0.0416667   0.1250000   0.1250000), wk =   0.0069444
        k(   14) = (   0.0416667   0.1250000   0.2083333), wk =   0.0138889
        k(   15) = (   0.0416667   0.1250000   0.2916667), wk =   0.0138889
        k(   16) = (   0.0416667   0.1250000   0.3750000), wk =   0.0138889
        k(   17) = (   0.0416667   0.1250000   0.4583333), wk =   0.0138889
        k(   18) = (   0.0416667   0.1250000  -0.4583333), wk =   0.0138889
        k(   19) = (   0.0416667   0.1250000  -0.3750000), wk =   0.0138889
        k(   20) = (   0.0416667   0.1250000  -0.2916667), wk =   0.0138889
        k(   21) = (   0.0416667   0.1250000  -0.2083333), wk =   0.0138889
        k(   22) = (   0.0416667   0.1250000  -0.1250000), wk =   0.0138889
        k(   23) = (   0.0416667   0.1250000  -0.0416667), wk =   0.0138889
        k(   24) = (   0.0416667   0.2083333   0.2083333), wk =   0.0069444
        k(   25) = (   0.0416667   0.2083333   0.2916667), wk =   0.0138889
        k(   26) = (   0.0416667   0.2083333   0.3750000), wk =   0.0138889
        k(   27) = (   0.0416667   0.2083333   0.4583333), wk =   0.0138889
        k(   28) = (   0.0416667   0.2083333  -0.4583333), wk =   0.0138889
        k(   29) = (   0.0416667   0.2083333  -0.3750000), wk =   0.0138889
        k(   30) = (   0.0416667   0.2083333  -0.2916667), wk =   0.0138889
        k(   31) = (   0.0416667   0.2083333  -0.2083333), wk =   0.0138889
        k(   32) = (   0.0416667   0.2083333  -0.1250000), wk =   0.0138889
        k(   33) = (   0.0416667   0.2083333  -0.0416667), wk =   0.0138889
        k(   34) = (   0.0416667   0.2916667   0.2916667), wk =   0.0069444
        k(   35) = (   0.0416667   0.2916667   0.3750000), wk =   0.0138889
        k(   36) = (   0.0416667   0.2916667   0.4583333), wk =   0.0138889
        k(   37) = (   0.0416667   0.2916667  -0.4583333), wk =   0.0138889
        k(   38) = (   0.0416667   0.2916667  -0.3750000), wk =   0.0138889
        k(   39) = (   0.0416667   0.2916667  -0.2916667), wk =   0.0138889
        k(   40) = (   0.0416667   0.2916667  -0.2083333), wk =   0.0138889
        k(   41) = (   0.0416667   0.2916667  -0.1250000), wk =   0.0138889
        k(   42) = (   0.0416667   0.2916667  -0.0416667), wk =   0.0138889
        k(   43) = (   0.0416667   0.3750000   0.3750000), wk =   0.0069444
        k(   44) = (   0.0416667   0.3750000   0.4583333), wk =   0.0138889
        k(   45) = (   0.0416667   0.3750000  -0.4583333), wk =   0.0138889
        k(   46) = (   0.0416667   0.3750000  -0.3750000), wk =   0.0138889
        k(   47) = (   0.0416667   0.3750000  -0.2916667), wk =   0.0138889
        k(   48) = (   0.0416667   0.3750000  -0.2083333), wk =   0.0138889
        k(   49) = (   0.0416667   0.3750000  -0.1250000), wk =   0.0138889
        k(   50) = (   0.0416667   0.3750000  -0.0416667), wk =   0.0138889
        k(   51) = (   0.0416667   0.4583333   0.4583333), wk =   0.0069444
        k(   52) = (   0.0416667   0.4583333  -0.4583333), wk =   0.0138889
        k(   53) = (   0.0416667   0.4583333  -0.3750000), wk =   0.0138889
        k(   54) = (   0.0416667   0.4583333  -0.2916667), wk =   0.0138889
        k(   55) = (   0.0416667   0.4583333  -0.2083333), wk =   0.0138889
        k(   56) = (   0.0416667   0.4583333  -0.1250000), wk =   0.0138889
        k(   57) = (   0.0416667   0.4583333  -0.0416667), wk =   0.0138889
        k(   58) = (   0.0416667  -0.4583333  -0.4583333), wk =   0.0069444
        k(   59) = (   0.0416667  -0.4583333  -0.3750000), wk =   0.0138889
        k(   60) = (   0.0416667  -0.4583333  -0.2916667), wk =   0.0138889
        k(   61) = (   0.0416667  -0.4583333  -0.2083333), wk =   0.0138889
        k(   62) = (   0.0416667  -0.4583333  -0.1250000), wk =   0.0138889
        k(   63) = (   0.0416667  -0.3750000  -0.3750000), wk =   0.0069444
        k(   64) = (   0.0416667  -0.3750000  -0.2916667), wk =   0.0138889
        k(   65) = (   0.0416667  -0.3750000  -0.2083333), wk =   0.0138889
        k(   66) = (   0.0416667  -0.3750000  -0.1250000), wk =   0.0138889
        k(   67) = (   0.0416667  -0.2916667  -0.2916667), wk =   0.0069444
        k(   68) = (   0.0416667  -0.2916667  -0.2083333), wk =   0.0138889
        k(   69) = (   0.0416667  -0.2916667  -0.1250000), wk =   0.0138889
        k(   70) = (   0.0416667  -0.2083333  -0.2083333), wk =   0.0069444
        k(   71) = (   0.0416667  -0.2083333  -0.1250000), wk =   0.0138889
        k(   72) = (   0.0416667  -0.1250000  -0.1250000), wk =   0.0069444
        k(   73) = (   0.1250000   0.1250000   0.1250000), wk =   0.0023148
        k(   74) = (   0.1250000   0.1250000   0.2083333), wk =   0.0069444
        k(   75) = (   0.1250000   0.1250000   0.2916667), wk =   0.0069444
        k(   76) = (   0.1250000   0.1250000   0.3750000), wk =   0.0069444
        k(   77) = (   0.1250000   0.1250000   0.4583333), wk =   0.0069444
        k(   78) = (   0.1250000   0.1250000  -0.4583333), wk =   0.0069444
        k(   79) = (   0.1250000   0.1250000  -0.3750000), wk =   0.0069444
        k(   80) = (   0.1250000   0.1250000  -0.2916667), wk =   0.0069444
        k(   81) = (   0.1250000   0.1250000  -0.2083333), wk =   0.0069444
        k(   82) = (   0.1250000   0.1250000  -0.1250000), wk =   0.0069444
        k(   83) = (   0.1250000   0.2083333   0.2083333), wk =   0.0069444
        k(   84) = (   0.1250000   0.2083333   0.2916667), wk =   0.0138889
        k(   85) = (   0.1250000   0.2083333   0.3750000), wk =   0.0138889
        k(   86) = (   0.1250000   0.2083333   0.4583333), wk =   0.0138889
        k(   87) = (   0.1250000   0.2083333  -0.4583333), wk =   0.0138889
        k(   88) = (   0.1250000   0.2083333  -0.3750000), wk =   0.0138889
        k(   89) = (   0.1250000   0.2083333  -0.2916667), wk =   0.0138889
        k(   90) = (   0.1250000   0.2083333  -0.2083333), wk =   0.0138889
        k(   91) = (   0.1250000   0.2083333  -0.1250000), wk =   0.0138889
        k(   92) = (   0.1250000   0.2916667   0.2916667), wk =   0.0069444
        k(   93) = (   0.1250000   0.2916667   0.3750000), wk =   0.0138889
        k(   94) = (   0.1250000   0.2916667   0.4583333), wk =   0.0138889
        k(   95) = (   0.1250000   0.2916667  -0.4583333), wk =   0.0138889
        k(   96) = (   0.1250000   0.2916667  -0.3750000), wk =   0.0138889
        k(   97) = (   0.1250000   0.2916667  -0.2916667), wk =   0.0138889
        k(   98) = (   0.1250000   0.2916667  -0.2083333), wk =   0.0138889
        k(   99) = (   0.1250000   0.2916667  -0.1250000), wk =   0.0138889
        k(  100) = (   0.1250000   0.3750000   0.3750000), wk =   0.0069444
        k(  101) = (   0.1250000   0.3750000   0.4583333), wk =   0.0138889
        k(  102) = (   0.1250000   0.3750000  -0.4583333), wk =   0.0138889
        k(  103) = (   0.1250000   0.3750000  -0.3750000), wk =   0.0138889
        k(  104) = (   0.1250000   0.3750000  -0.2916667), wk =   0.0138889
        k(  105) = (   0.1250000   0.3750000  -0.2083333), wk =   0.0138889
        k(  106) = (   0.1250000   0.3750000  -0.1250000), wk =   0.0138889
        k(  107) = (   0.1250000   0.4583333   0.4583333), wk =   0.0069444
        k(  108) = (   0.1250000   0.4583333  -0.4583333), wk =   0.0138889
        k(  109) = (   0.1250000   0.4583333  -0.3750000), wk =   0.0138889
        k(  110) = (   0.1250000   0.4583333  -0.2916667), wk =   0.0138889
        k(  111) = (   0.1250000   0.4583333  -0.2083333), wk =   0.0138889
        k(  112) = (   0.1250000   0.4583333  -0.1250000), wk =   0.0138889
        k(  113) = (   0.1250000  -0.4583333  -0.4583333), wk =   0.0069444
        k(  114) = (   0.1250000  -0.4583333  -0.3750000), wk =   0.0138889
        k(  115) = (   0.1250000  -0.4583333  -0.2916667), wk =   0.0138889
        k(  116) = (   0.1250000  -0.4583333  -0.2083333), wk =   0.0138889
        k(  117) = (   0.1250000  -0.3750000  -0.3750000), wk =   0.0069444
        k(  118) = (   0.1250000  -0.3750000  -0.2916667), wk =   0.0138889
        k(  119) = (   0.1250000  -0.3750000  -0.2083333), wk =   0.0138889
        k(  120) = (   0.1250000  -0.2916667  -0.2916667), wk =   0.0069444
        k(  121) = (   0.1250000  -0.2916667  -0.2083333), wk =   0.0138889
        k(  122) = (   0.1250000  -0.2083333  -0.2083333), wk =   0.0069444
        k(  123) = (   0.2083333   0.2083333   0.2083333), wk =   0.0023148
        k(  124) = (   0.2083333   0.2083333   0.2916667), wk =   0.0069444
        k(  125) = (   0.2083333   0.2083333   0.3750000), wk =   0.0069444
        k(  126) = (   0.2083333   0.2083333   0.4583333), wk =   0.0069444
        k(  127) = (   0.2083333   0.2083333  -0.4583333), wk =   0.0069444
        k(  128) = (   0.2083333   0.2083333  -0.3750000), wk =   0.0069444
        k(  129) = (   0.2083333   0.2083333  -0.2916667), wk =   0.0069444
        k(  130) = (   0.2083333   0.2083333  -0.2083333), wk =   0.0069444
        k(  131) = (   0.2083333   0.2916667   0.2916667), wk =   0.0069444
        k(  132) = (   0.2083333   0.2916667   0.3750000), wk =   0.0138889
        k(  133) = (   0.2083333   0.2916667   0.4583333), wk =   0.0138889
        k(  134) = (   0.2083333   0.2916667  -0.4583333), wk =   0.0138889
        k(  135) = (   0.2083333   0.2916667  -0.3750000), wk =   0.0138889
        k(  136) = (   0.2083333   0.2916667  -0.2916667), wk =   0.0138889
        k(  137) = (   0.2083333   0.2916667  -0.2083333), wk =   0.0138889
        k(  138) = (   0.2083333   0.3750000   0.3750000), wk =   0.0069444
        k(  139) = (   0.2083333   0.3750000   0.4583333), wk =   0.0138889
        k(  140) = (   0.2083333   0.3750000  -0.4583333), wk =   0.0138889
        k(  141) = (   0.2083333   0.3750000  -0.3750000), wk =   0.0138889
        k(  142) = (   0.2083333   0.3750000  -0.2916667), wk =   0.0138889
        k(  143) = (   0.2083333   0.3750000  -0.2083333), wk =   0.0138889
        k(  144) = (   0.2083333   0.4583333   0.4583333), wk =   0.0069444
        k(  145) = (   0.2083333   0.4583333  -0.4583333), wk =   0.0138889
        k(  146) = (   0.2083333   0.4583333  -0.3750000), wk =   0.0138889
        k(  147) = (   0.2083333   0.4583333  -0.2916667), wk =   0.0138889
        k(  148) = (   0.2083333   0.4583333  -0.2083333), wk =   0.0138889
        k(  149) = (   0.2083333  -0.4583333  -0.4583333), wk =   0.0069444
        k(  150) = (   0.2083333  -0.4583333  -0.3750000), wk =   0.0138889
        k(  151) = (   0.2083333  -0.4583333  -0.2916667), wk =   0.0138889
        k(  152) = (   0.2083333  -0.3750000  -0.3750000), wk =   0.0069444
        k(  153) = (   0.2083333  -0.3750000  -0.2916667), wk =   0.0138889
        k(  154) = (   0.2083333  -0.2916667  -0.2916667), wk =   0.0069444
        k(  155) = (   0.2916667   0.2916667   0.2916667), wk =   0.0023148
        k(  156) = (   0.2916667   0.2916667   0.3750000), wk =   0.0069444
        k(  157) = (   0.2916667   0.2916667   0.4583333), wk =   0.0069444
        k(  158) = (   0.2916667   0.2916667  -0.4583333), wk =   0.0069444
        k(  159) = (   0.2916667   0.2916667  -0.3750000), wk =   0.0069444
        k(  160) = (   0.2916667   0.2916667  -0.2916667), wk =   0.0069444
        k(  161) = (   0.2916667   0.3750000   0.3750000), wk =   0.0069444
        k(  162) = (   0.2916667   0.3750000   0.4583333), wk =   0.0138889
        k(  163) = (   0.2916667   0.3750000  -0.4583333), wk =   0.0138889
        k(  164) = (   0.2916667   0.3750000  -0.3750000), wk =   0.0138889
        k(  165) = (   0.2916667   0.3750000  -0.2916667), wk =   0.0138889
        k(  166) = (   0.2916667   0.4583333   0.4583333), wk =   0.0069444
        k(  167) = (   0.2916667   0.4583333  -0.4583333), wk =   0.0138889
        k(  168) = (   0.2916667   0.4583333  -0.3750000), wk =   0.0138889
        k(  169) = (   0.2916667   0.4583333  -0.2916667), wk =   0.0138889
        k(  170) = (   0.2916667  -0.4583333  -0.4583333), wk =   0.0069444
        k(  171) = (   0.2916667  -0.4583333  -0.3750000), wk =   0.0138889
        k(  172) = (   0.2916667  -0.3750000  -0.3750000), wk =   0.0069444
        k(  173) = (   0.3750000   0.3750000   0.3750000), wk =   0.0023148
        k(  174) = (   0.3750000   0.3750000   0.4583333), wk =   0.0069444
        k(  175) = (   0.3750000   0.3750000  -0.4583333), wk =   0.0069444
        k(  176) = (   0.3750000   0.3750000  -0.3750000), wk =   0.0069444
        k(  177) = (   0.3750000   0.4583333   0.4583333), wk =   0.0069444
        k(  178) = (   0.3750000   0.4583333  -0.4583333), wk =   0.0138889
        k(  179) = (   0.3750000   0.4583333  -0.3750000), wk =   0.0138889
        k(  180) = (   0.3750000  -0.4583333  -0.4583333), wk =   0.0069444
        k(  181) = (   0.4583333   0.4583333   0.4583333), wk =   0.0023148
        k(  182) = (   0.4583333   0.4583333  -0.4583333), wk =   0.0069444

     Dense  grid:    87843 G-vectors     FFT dimensions: (  64,  64,  64)

     Smooth grid:    16889 G-vectors     FFT dimensions: (  36,  36,  36)

     Dynamical RAM for                 wfc:       0.13 MB

     Dynamical RAM for     wfc (w. buffer):       0.13 MB

     Dynamical RAM for           str. fact:       0.67 MB

     Dynamical RAM for           local pot:       0.00 MB

     Dynamical RAM for          nlocal pot:       0.16 MB

     Dynamical RAM for                qrad:       0.37 MB

     Dynamical RAM for          rho,v,vnew:       5.01 MB

     Dynamical RAM for           G-vectors:       2.58 MB

     Dynamical RAM for          h,s,v(r/c):       0.01 MB

     Dynamical RAM for          <psi|beta>:       0.00 MB

     Dynamical RAM for                 psi:       0.26 MB

     Dynamical RAM for                hpsi:       0.26 MB

     Dynamical RAM for      wfcinit/wfcrot:       0.26 MB

     Estimated static dynamical RAM per process >      15.26 MB

     Estimated max dynamical RAM per process >      15.79 MB

     Estimated total dynamical RAM >      31.58 MB

     The potential is recalculated from file :
     ../tmp/Si.save/charge-density

     Starting wfcs are    8 randomized atomic wfcs

     Band Structure Calculation
     Davidson diagonalization with overlap

     Computing kpt #:     1  of   182
     total cpu time spent up to now is        0.9 secs

     Computing kpt #:     2  of   182
     total cpu time spent up to now is        1.1 secs

     Computing kpt #:     3  of   182
     total cpu time spent up to now is        1.5 secs

     Computing kpt #:     4  of   182
     total cpu time spent up to now is        1.9 secs

     Computing kpt #:     5  of   182
     total cpu time spent up to now is        2.2 secs

     Computing kpt #:     6  of   182
     total cpu time spent up to now is        2.4 secs

     Computing kpt #:     7  of   182
     total cpu time spent up to now is        2.6 secs

     Computing kpt #:     8  of   182
     total cpu time spent up to now is        2.9 secs

     Computing kpt #:     9  of   182
     total cpu time spent up to now is        3.3 secs

     Computing kpt #:    10  of   182
     total cpu time spent up to now is        3.6 secs

     Computing kpt #:    11  of   182
     total cpu time spent up to now is        3.9 secs

     Computing kpt #:    12  of   182
     total cpu time spent up to now is        4.2 secs

     Computing kpt #:    13  of   182
     total cpu time spent up to now is        4.6 secs

     Computing kpt #:    14  of   182
     total cpu time spent up to now is        4.9 secs

     Computing kpt #:    15  of   182
     total cpu time spent up to now is        5.2 secs

     Computing kpt #:    16  of   182
     total cpu time spent up to now is        5.5 secs

     Computing kpt #:    17  of   182
     total cpu time spent up to now is        5.7 secs

     Computing kpt #:    18  of   182
     total cpu time spent up to now is        6.0 secs

     Computing kpt #:    19  of   182
     total cpu time spent up to now is        6.3 secs

     Computing kpt #:    20  of   182
     total cpu time spent up to now is        6.6 secs

     Computing kpt #:    21  of   182
     total cpu time spent up to now is        6.9 secs

     Computing kpt #:    22  of   182
     total cpu time spent up to now is        7.3 secs

     Computing kpt #:    23  of   182
     total cpu time spent up to now is        7.6 secs

     Computing kpt #:    24  of   182
     total cpu time spent up to now is        7.9 secs

     Computing kpt #:    25  of   182
     total cpu time spent up to now is        8.2 secs

     Computing kpt #:    26  of   182
     total cpu time spent up to now is        8.4 secs

     Computing kpt #:    27  of   182
     total cpu time spent up to now is        8.7 secs

     Computing kpt #:    28  of   182
     total cpu time spent up to now is        8.9 secs

     Computing kpt #:    29  of   182
     total cpu time spent up to now is        9.2 secs

     Computing kpt #:    30  of   182
     total cpu time spent up to now is        9.5 secs

     Computing kpt #:    31  of   182
     total cpu time spent up to now is        9.8 secs

     Computing kpt #:    32  of   182
     total cpu time spent up to now is       10.1 secs

     Computing kpt #:    33  of   182
     total cpu time spent up to now is       10.4 secs

     Computing kpt #:    34  of   182
     total cpu time spent up to now is       10.7 secs

     Computing kpt #:    35  of   182
     total cpu time spent up to now is       11.1 secs

     Computing kpt #:    36  of   182
     total cpu time spent up to now is       11.4 secs

     Computing kpt #:    37  of   182
     total cpu time spent up to now is       11.8 secs

     Computing kpt #:    38  of   182
     total cpu time spent up to now is       12.2 secs

     Computing kpt #:    39  of   182
     total cpu time spent up to now is       12.6 secs

     Computing kpt #:    40  of   182
     total cpu time spent up to now is       12.9 secs

     Computing kpt #:    41  of   182
     total cpu time spent up to now is       13.2 secs

     Computing kpt #:    42  of   182
     total cpu time spent up to now is       13.5 secs

     Computing kpt #:    43  of   182
     total cpu time spent up to now is       13.8 secs

     Computing kpt #:    44  of   182
     total cpu time spent up to now is       14.1 secs

     Computing kpt #:    45  of   182
     total cpu time spent up to now is       14.3 secs

     Computing kpt #:    46  of   182
     total cpu time spent up to now is       14.7 secs

     Computing kpt #:    47  of   182
     total cpu time spent up to now is       15.1 secs

     Computing kpt #:    48  of   182
     total cpu time spent up to now is       15.4 secs

     Computing kpt #:    49  of   182
     total cpu time spent up to now is       15.6 secs

     Computing kpt #:    50  of   182
     total cpu time spent up to now is       15.9 secs

     Computing kpt #:    51  of   182
     total cpu time spent up to now is       16.2 secs

     Computing kpt #:    52  of   182
     total cpu time spent up to now is       16.5 secs

     Computing kpt #:    53  of   182
     total cpu time spent up to now is       16.8 secs

     Computing kpt #:    54  of   182
     total cpu time spent up to now is       17.0 secs

     Computing kpt #:    55  of   182
     total cpu time spent up to now is       17.3 secs

     Computing kpt #:    56  of   182
     total cpu time spent up to now is       17.6 secs

     Computing kpt #:    57  of   182
     total cpu time spent up to now is       18.0 secs

     Computing kpt #:    58  of   182
     total cpu time spent up to now is       18.3 secs

     Computing kpt #:    59  of   182
     total cpu time spent up to now is       18.6 secs

     Computing kpt #:    60  of   182
     total cpu time spent up to now is       18.8 secs

     Computing kpt #:    61  of   182
     total cpu time spent up to now is       19.1 secs

     Computing kpt #:    62  of   182
     total cpu time spent up to now is       19.4 secs

     Computing kpt #:    63  of   182
     total cpu time spent up to now is       19.6 secs

     Computing kpt #:    64  of   182
     total cpu time spent up to now is       19.8 secs

     Computing kpt #:    65  of   182
     total cpu time spent up to now is       20.1 secs

     Computing kpt #:    66  of   182
     total cpu time spent up to now is       20.3 secs

     Computing kpt #:    67  of   182
     total cpu time spent up to now is       20.6 secs

     Computing kpt #:    68  of   182
     total cpu time spent up to now is       20.9 secs

     Computing kpt #:    69  of   182
     total cpu time spent up to now is       21.2 secs

     Computing kpt #:    70  of   182
     total cpu time spent up to now is       21.5 secs

     Computing kpt #:    71  of   182
     total cpu time spent up to now is       21.9 secs

     Computing kpt #:    72  of   182
     total cpu time spent up to now is       22.2 secs

     Computing kpt #:    73  of   182
     total cpu time spent up to now is       22.5 secs

     Computing kpt #:    74  of   182
     total cpu time spent up to now is       22.8 secs

     Computing kpt #:    75  of   182
     total cpu time spent up to now is       23.0 secs

     Computing kpt #:    76  of   182
     total cpu time spent up to now is       23.4 secs

     Computing kpt #:    77  of   182
     total cpu time spent up to now is       23.7 secs

     Computing kpt #:    78  of   182
     total cpu time spent up to now is       24.0 secs

     Computing kpt #:    79  of   182
     total cpu time spent up to now is       24.3 secs

     Computing kpt #:    80  of   182
     total cpu time spent up to now is       24.6 secs

     Computing kpt #:    81  of   182
     total cpu time spent up to now is       24.9 secs

     Computing kpt #:    82  of   182
     total cpu time spent up to now is       25.2 secs

     Computing kpt #:    83  of   182
     total cpu time spent up to now is       25.5 secs

     Computing kpt #:    84  of   182
     total cpu time spent up to now is       25.8 secs

     Computing kpt #:    85  of   182
     total cpu time spent up to now is       26.1 secs

     Computing kpt #:    86  of   182
     total cpu time spent up to now is       26.4 secs

     Computing kpt #:    87  of   182
     total cpu time spent up to now is       26.6 secs

     Computing kpt #:    88  of   182
     total cpu time spent up to now is       26.9 secs

     Computing kpt #:    89  of   182
     total cpu time spent up to now is       27.2 secs

     Computing kpt #:    90  of   182
     total cpu time spent up to now is       27.5 secs

     Computing kpt #:    91  of   182
     total cpu time spent up to now is       27.8 secs

     Computing kpt #:    92  of   182
     total cpu time spent up to now is       28.1 secs

     Computing kpt #:    93  of   182
     total cpu time spent up to now is       28.3 secs

     Computing kpt #:    94  of   182
     total cpu time spent up to now is       28.6 secs

     Computing kpt #:    95  of   182
     total cpu time spent up to now is       28.8 secs

     Computing kpt #:    96  of   182
     total cpu time spent up to now is       29.1 secs

     Computing kpt #:    97  of   182
     total cpu time spent up to now is       29.4 secs

     Computing kpt #:    98  of   182
     total cpu time spent up to now is       29.7 secs

     Computing kpt #:    99  of   182
     total cpu time spent up to now is       30.0 secs

     Computing kpt #:   100  of   182
     total cpu time spent up to now is       30.2 secs

     Computing kpt #:   101  of   182
     total cpu time spent up to now is       30.4 secs

     Computing kpt #:   102  of   182
     total cpu time spent up to now is       30.7 secs

     Computing kpt #:   103  of   182
     total cpu time spent up to now is       31.0 secs

     Computing kpt #:   104  of   182
     total cpu time spent up to now is       31.3 secs

     Computing kpt #:   105  of   182
     total cpu time spent up to now is       31.5 secs

     Computing kpt #:   106  of   182
     total cpu time spent up to now is       31.8 secs

     Computing kpt #:   107  of   182
     total cpu time spent up to now is       32.1 secs

     Computing kpt #:   108  of   182
     total cpu time spent up to now is       32.4 secs

     Computing kpt #:   109  of   182
     total cpu time spent up to now is       32.7 secs

     Computing kpt #:   110  of   182
     total cpu time spent up to now is       32.9 secs

     Computing kpt #:   111  of   182
     total cpu time spent up to now is       33.3 secs

     Computing kpt #:   112  of   182
     total cpu time spent up to now is       33.6 secs

     Computing kpt #:   113  of   182
     total cpu time spent up to now is       33.8 secs

     Computing kpt #:   114  of   182
     total cpu time spent up to now is       34.1 secs

     Computing kpt #:   115  of   182
     total cpu time spent up to now is       34.4 secs

     Computing kpt #:   116  of   182
     total cpu time spent up to now is       34.7 secs

     Computing kpt #:   117  of   182
     total cpu time spent up to now is       35.0 secs

     Computing kpt #:   118  of   182
     total cpu time spent up to now is       35.2 secs

     Computing kpt #:   119  of   182
     total cpu time spent up to now is       35.5 secs

     Computing kpt #:   120  of   182
     total cpu time spent up to now is       35.7 secs

     Computing kpt #:   121  of   182
     total cpu time spent up to now is       36.0 secs

     Computing kpt #:   122  of   182
     total cpu time spent up to now is       36.2 secs

     Computing kpt #:   123  of   182
     total cpu time spent up to now is       36.5 secs

     Computing kpt #:   124  of   182
     total cpu time spent up to now is       36.8 secs

     Computing kpt #:   125  of   182
     total cpu time spent up to now is       37.1 secs

     Computing kpt #:   126  of   182
     total cpu time spent up to now is       37.3 secs

     Computing kpt #:   127  of   182
     total cpu time spent up to now is       37.6 secs

     Computing kpt #:   128  of   182
     total cpu time spent up to now is       37.9 secs

     Computing kpt #:   129  of   182
     total cpu time spent up to now is       38.2 secs

     Computing kpt #:   130  of   182
     total cpu time spent up to now is       38.5 secs

     Computing kpt #:   131  of   182
     total cpu time spent up to now is       38.7 secs

     Computing kpt #:   132  of   182
     total cpu time spent up to now is       39.0 secs

     Computing kpt #:   133  of   182
     total cpu time spent up to now is       39.3 secs

     Computing kpt #:   134  of   182
     total cpu time spent up to now is       39.7 secs

     Computing kpt #:   135  of   182
     total cpu time spent up to now is       40.0 secs

     Computing kpt #:   136  of   182
     total cpu time spent up to now is       40.3 secs

     Computing kpt #:   137  of   182
     total cpu time spent up to now is       40.6 secs

     Computing kpt #:   138  of   182
     total cpu time spent up to now is       40.9 secs

     Computing kpt #:   139  of   182
     total cpu time spent up to now is       41.2 secs

     Computing kpt #:   140  of   182
     total cpu time spent up to now is       41.5 secs

     Computing kpt #:   141  of   182
     total cpu time spent up to now is       41.8 secs

     Computing kpt #:   142  of   182
     total cpu time spent up to now is       42.1 secs

     Computing kpt #:   143  of   182
     total cpu time spent up to now is       42.6 secs

     Computing kpt #:   144  of   182
     total cpu time spent up to now is       42.9 secs

     Computing kpt #:   145  of   182
     total cpu time spent up to now is       43.2 secs

     Computing kpt #:   146  of   182
     total cpu time spent up to now is       43.5 secs

     Computing kpt #:   147  of   182
     total cpu time spent up to now is       43.8 secs

     Computing kpt #:   148  of   182
     total cpu time spent up to now is       44.0 secs

     Computing kpt #:   149  of   182
     total cpu time spent up to now is       44.3 secs

     Computing kpt #:   150  of   182
     total cpu time spent up to now is       44.6 secs

     Computing kpt #:   151  of   182
     total cpu time spent up to now is       44.9 secs

     Computing kpt #:   152  of   182
     total cpu time spent up to now is       45.2 secs

     Computing kpt #:   153  of   182
     total cpu time spent up to now is       45.4 secs

     Computing kpt #:   154  of   182
     total cpu time spent up to now is       45.7 secs

     Computing kpt #:   155  of   182
     total cpu time spent up to now is       46.2 secs

     Computing kpt #:   156  of   182
     total cpu time spent up to now is       46.6 secs

     Computing kpt #:   157  of   182
     total cpu time spent up to now is       46.9 secs

     Computing kpt #:   158  of   182
     total cpu time spent up to now is       47.1 secs

     Computing kpt #:   159  of   182
     total cpu time spent up to now is       47.5 secs

     Computing kpt #:   160  of   182
     total cpu time spent up to now is       47.9 secs

     Computing kpt #:   161  of   182
     total cpu time spent up to now is       48.3 secs

     Computing kpt #:   162  of   182
     total cpu time spent up to now is       48.8 secs

     Computing kpt #:   163  of   182
     total cpu time spent up to now is       49.1 secs

     Computing kpt #:   164  of   182
     total cpu time spent up to now is       49.5 secs

     Computing kpt #:   165  of   182
     total cpu time spent up to now is       49.8 secs

     Computing kpt #:   166  of   182
     total cpu time spent up to now is       50.1 secs

     Computing kpt #:   167  of   182
     total cpu time spent up to now is       50.3 secs

     Computing kpt #:   168  of   182
     total cpu time spent up to now is       50.7 secs

     Computing kpt #:   169  of   182
     total cpu time spent up to now is       50.9 secs

     Computing kpt #:   170  of   182
     total cpu time spent up to now is       51.1 secs

     Computing kpt #:   171  of   182
     total cpu time spent up to now is       51.7 secs

     Computing kpt #:   172  of   182
     total cpu time spent up to now is       52.0 secs

     Computing kpt #:   173  of   182
     total cpu time spent up to now is       52.4 secs

     Computing kpt #:   174  of   182
     total cpu time spent up to now is       52.7 secs

     Computing kpt #:   175  of   182
     total cpu time spent up to now is       53.0 secs

     Computing kpt #:   176  of   182
     total cpu time spent up to now is       53.4 secs

     Computing kpt #:   177  of   182
     total cpu time spent up to now is       53.7 secs

     Computing kpt #:   178  of   182
     total cpu time spent up to now is       53.9 secs

     Computing kpt #:   179  of   182
     total cpu time spent up to now is       54.3 secs

     Computing kpt #:   180  of   182
     total cpu time spent up to now is       54.5 secs

     Computing kpt #:   181  of   182
     total cpu time spent up to now is       54.8 secs

     Computing kpt #:   182  of   182
     total cpu time spent up to now is       55.0 secs

     ethr =  1.25E-10,  avg # of iterations = 32.9

     total cpu time spent up to now is       55.0 secs

     End of band structure calculation

          k =-0.0417 0.0417 0.0417 (  2097 PWs)   bands (ev):

    -5.6507   5.9763   6.1890   6.1890   8.8551   8.8579   8.8579   9.8535

     occupation numbers 
     1.0000   1.0000   1.0000   1.0000   0.0000   0.0000   0.0000   0.0000

          k =-0.1250 0.1250-0.0417 (  2110 PWs)   bands (ev):

    -5.5296   5.1015   5.7689   6.1370   8.9506   8.9755   9.1829  10.6381

     occupation numbers 
     1.0000   1.0000   1.0000   1.0000   0.0000   0.0000   0.0000   0.0000

          k =-0.2083 0.2083-0.1250 (  2109 PWs)   bands (ev):

    -5.2305   3.6033   5.4015   5.8686   8.7098   9.3646   9.6681  11.9364

     occupation numbers 
     1.0000   1.0000   1.0000   1.0000   0.0000   0.0000   0.0000   0.0000

          k =-0.2917 0.2917-0.2083 (  2110 PWs)   bands (ev):

    -4.7662   2.0900   5.1070   5.5530   8.4096   9.6486   9.9032  13.0200

     occupation numbers 
     1.0000   1.0000   1.0000   1.0000   0.0000   0.0000   0.0000   0.0000

          k =-0.3750 0.3750-0.2917 (  2121 PWs)   bands (ev):

    -4.1717   0.7252   4.9152   5.2805   8.1687   9.6797   9.8154  13.8941

     occupation numbers 
     1.0000   1.0000   1.0000   1.0000   0.0000   0.0000   0.0000   0.0000

          k =-0.4583 0.4583-0.3750 (  2110 PWs)   bands (ev):

    -3.5637  -0.3327   4.8351   5.0863   8.0245   9.6370   9.6403  14.1001

     occupation numbers 
     1.0000   1.0000   1.0000   1.0000   0.0000   0.0000   0.0000   0.0000

          k = 0.4583-0.4583 0.5417 (  2123 PWs)   bands (ev):

    -3.3292  -0.6807   4.8645   4.9860   7.9888   9.5378   9.6686  14.0668

     occupation numbers 
     1.0000   1.0000   1.0000   1.0000   0.0000   0.0000   0.0000   0.0000

          k = 0.3750-0.3750 0.4583 (  2106 PWs)   bands (ev):

    -3.7522  -0.0314   4.9887   4.9965   8.0638   9.5459   9.8034  13.9981

     occupation numbers 
     1.0000   1.0000   1.0000   1.0000   0.0000   0.0000   0.0000   0.0000

          k = 0.2917-0.2917 0.3750 (  2120 PWs)   bands (ev):

    -4.3800   1.1558   5.1003   5.2210   8.2435   9.5985   9.9684  13.1997

     occupation numbers 
     1.0000   1.0000   1.0000   1.0000   0.0000   0.0000   0.0000   0.0000

          k = 0.2083-0.2083 0.2917 (  2109 PWs)   bands (ev):

    -4.9378   2.5840   5.3190   5.5194   8.5065   9.5039   9.9702  12.4344

     occupation numbers 
     1.0000   1.0000   1.0000   1.0000   0.0000   0.0000   0.0000   0.0000

          k = 0.1250-0.1250 0.2083 (  2110 PWs)   bands (ev):

    -5.3494   4.1214   5.6265   5.8438   8.7709   9.1778   9.6405  11.4657

     occupation numbers 
     1.0000   1.0000   1.0000   1.0000   0.0000   0.0000   0.0000   0.0000

          k = 0.0417-0.0417 0.1250 (  2101 PWs)   bands (ev):

    -5.5900   5.5640   5.9639   6.0692   8.7216   9.0711   9.1552  10.2232

     occupation numbers 
     1.0000   1.0000   1.0000   1.0000   0.0000   0.0000   0.0000   0.0000

          k =-0.0417 0.2083 0.0417 (  2115 PWs)   bands (ev):

    -5.4689   5.0246   5.6178   5.7264   8.4836   9.5059   9.6447  10.6968

     occupation numbers 
     1.0000   1.0000   1.0000   1.0000   0.0000   0.0000   0.0000   0.0000

          k =-0.1250 0.2917-0.0417 (  2108 PWs)   bands (ev):

    -5.2287   3.9923   5.0297   5.5826   8.4988   9.7087  10.1502  11.2091

     occupation numbers 
     1.0000   1.0000   1.0000   1.0000   0.0000   0.0000   0.0000   0.0000

          k =-0.2083 0.3750-0.1250 (  2108 PWs)   bands (ev):

    -4.8180   2.5711   4.6518   5.2913   8.7077   9.6574  10.5271  11.3694

     occupation numbers 
     1.0000   1.0000   1.0000   1.0000   0.0000   0.0000   0.0000   0.0000

          k =-0.2917 0.4583-0.2083 (  2116 PWs)   bands (ev):

    -4.2609   1.1892   4.3955   4.9861   8.6721   9.6328  10.5226  11.9692

     occupation numbers 
     1.0000   1.0000   1.0000   1.0000   0.0000   0.0000   0.0000   0.0000

          k =-0.3750 0.5417-0.2917 (  2110 PWs)   bands (ev):

    -3.6328   0.0225   4.2188   4.7908   8.5704   9.5302  10.3464  13.1052

     occupation numbers 
     1.0000   1.0000   1.0000   1.0000   0.0000   0.0000   0.0000   0.0000

          k = 0.5417-0.3750 0.6250 (  2119 PWs)   bands (ev):

    -3.2083  -0.6209   4.0959   4.7655   8.5406   9.4729  10.2072  14.2568

     occupation numbers 
     1.0000   1.0000   1.0000   1.0000   0.0000   0.0000   0.0000   0.0000

          k = 0.4583-0.2917 0.5417 (  2116 PWs)   bands (ev):

    -3.4452  -0.2730   4.0456   4.9015   8.6072   9.5121  10.1875  13.9427

     occupation numbers 
     1.0000   1.0000   1.0000   1.0000   0.0000   0.0000   0.0000   0.0000

          k = 0.3750-0.2083 0.4583 (  2114 PWs)   bands (ev):

    -4.0542   0.7712   4.1037   5.1581   8.7607   9.6012  10.2696  12.7669

     occupation numbers 
     1.0000   1.0000   1.0000   1.0000   0.0000   0.0000   0.0000   0.0000

          k = 0.2917-0.1250 0.3750 (  2114 PWs)   bands (ev):

    -4.6478   2.0961   4.2985   5.4859   8.9640   9.5649  10.2971  11.9248

     occupation numbers 
     1.0000   1.0000   1.0000   1.0000   0.0000   0.0000   0.0000   0.0000

          k = 0.2083-0.0417 0.2917 (  2110 PWs)   bands (ev):

    -5.1109   3.4913   4.6772   5.8031   8.9940   9.4144   9.9752  11.6176

     occupation numbers 
     1.0000   1.0000   1.0000   1.0000   0.0000   0.0000   0.0000   0.0000

          k = 0.1250 0.0417 0.2083 (  2115 PWs)   bands (ev):

    -5.4090   4.5621   5.4203   5.9575   8.7712   9.2612   9.5683  11.1234

     occupation numbers 
[...]

          k = 0.5417 0.1250 0.7917 (  2134 PWs)   bands (ev):

    -2.3990  -0.5552   2.1573   3.5813   8.9812  10.4960  12.3174  12.8284

     occupation numbers 
     1.0000   1.0000   1.0000   1.0000   0.0000   0.0000   0.0000   0.0000

          k = 0.4583 0.2083 0.7083 (  2126 PWs)   bands (ev):

    -2.9011  -0.3823   2.8091   4.1032   9.2502   9.4755  12.1540  12.6844

     occupation numbers 
     1.0000   1.0000   1.0000   1.0000   0.0000   0.0000   0.0000   0.0000

          k =-0.1250-1.0417 0.1250 (  2122 PWs)   bands (ev):

    -1.8135  -1.1657   2.7191   3.4988   7.0967   8.1125  15.1442  15.3931

     occupation numbers 
     1.0000   1.0000   1.0000   1.0000   0.0000   0.0000   0.0000   0.0000

          k =-0.2083-0.9583 0.0417 (  2128 PWs)   bands (ev):

    -1.7766  -1.1651   2.7663   3.1509   7.6462   8.1688  14.2534  15.0074

     occupation numbers 
     1.0000   1.0000   1.0000   1.0000   0.0000   0.0000   0.0000   0.0000

          k =-0.2917-0.8750-0.0417 (  2135 PWs)   bands (ev):

    -2.2529  -0.5916   2.5460   3.0655   8.3526   9.0232  12.4762  14.6978

     occupation numbers 
     1.0000   1.0000   1.0000   1.0000   0.0000   0.0000   0.0000   0.0000

          k =-0.3750-0.7917-0.1250 (  2129 PWs)   bands (ev):

    -2.6280  -0.2911   2.3811   3.5122   8.7529  10.5522  11.0245  13.8048

     occupation numbers 
     1.0000   1.0000   1.0000   1.0000   0.0000   0.0000   0.0000   0.0000

          k =-0.1250-0.8750 0.1250 (  2127 PWs)   bands (ev):

    -2.3835  -0.5470   2.8023   3.5524   7.1485   8.2164  14.5016  14.5959

     occupation numbers 
     1.0000   1.0000   1.0000   1.0000   0.0000   0.0000   0.0000   0.0000

          k =-0.2083-0.7917 0.0417 (  2124 PWs)   bands (ev):

    -2.8826   0.0648   2.9404   3.4188   7.7392   8.5241  12.8295  14.5287

     occupation numbers 
     1.0000   1.0000   1.0000   1.0000   0.0000   0.0000   0.0000   0.0000

          k =-0.2917-0.7083-0.0417 (  2117 PWs)   bands (ev):

    -3.2436   0.4814   2.7756   3.6940   8.5498   9.5249  11.2105  13.6674

     occupation numbers 
     1.0000   1.0000   1.0000   1.0000   0.0000   0.0000   0.0000   0.0000

          k =-0.1250-0.7083 0.1250 (  2118 PWs)   bands (ev):

    -3.4277   0.7209   3.2257   3.8176   7.4036   8.7346  13.0111  13.1449

     occupation numbers 
     1.0000   1.0000   1.0000   1.0000   0.0000   0.0000   0.0000   0.0000

          k =-0.2083-0.6250 0.0417 (  2111 PWs)   bands (ev):

    -3.8307   1.2713   3.3357   4.0427   8.0151   9.2802  11.5391  12.9184

     occupation numbers 
     1.0000   1.0000   1.0000   1.0000   0.0000   0.0000   0.0000   0.0000

          k =-0.1250-0.5417 0.1250 (  2106 PWs)   bands (ev):

    -4.2865   1.9237   3.9937   4.2820   7.8404   9.6398  11.4992  11.8826

     occupation numbers 
     1.0000   1.0000   1.0000   1.0000   0.0000   0.0000   0.0000   0.0000

          k =-0.2083 0.2083 0.2083 (  2115 PWs)   bands (ev):

    -5.1131   3.0925   5.6194   5.6194   8.4621   9.6316   9.6316  12.4719

     occupation numbers 
     1.0000   1.0000   1.0000   1.0000   0.0000   0.0000   0.0000   0.0000

          k =-0.2917 0.2917 0.1250 (  2114 PWs)   bands (ev):

    -4.8786   2.5800   4.6803   5.7141   8.8423   9.5866   9.9386  12.3656

     occupation numbers 
     1.0000   1.0000   1.0000   1.0000   0.0000   0.0000   0.0000   0.0000

          k =-0.3750 0.3750 0.0417 (  2121 PWs)   bands (ev):

    -4.4751   2.0066   3.5216   5.4913   9.2004  10.0397  10.3221  12.0382

     occupation numbers 
     1.0000   1.0000   1.0000   1.0000   0.0000   0.0000   0.0000   0.0000

          k =-0.4583 0.4583-0.0417 (  2116 PWs)   bands (ev):

    -3.9256   1.1376   2.8409   5.1102   8.9119  10.6331  10.9088  12.3102

     occupation numbers 
     1.0000   1.0000   1.0000   1.0000   0.0000   0.0000   0.0000   0.0000

          k = 0.4583-0.4583 0.8750 (  2117 PWs)   bands (ev):

    -3.2988   0.1289   2.6600   4.7272   8.5199  10.9775  10.9864  13.4819

     occupation numbers 
     1.0000   1.0000   1.0000   1.0000   0.0000   0.0000   0.0000   0.0000

          k = 0.3750-0.3750 0.7917 (  2125 PWs)   bands (ev):

    -2.8556  -0.5039   2.7517   4.4236   8.2119  11.0070  11.2046  13.2915

     occupation numbers 
     1.0000   1.0000   1.0000   1.0000   0.0000   0.0000   0.0000   0.0000

          k = 0.2917-0.2917 0.7083 (  2117 PWs)   bands (ev):

    -3.0823  -0.1972   3.0319   4.2381   8.0401  11.0908  11.4695  11.7189

     occupation numbers 
     1.0000   1.0000   1.0000   1.0000   0.0000   0.0000   0.0000   0.0000

          k = 0.2083-0.2083 0.6250 (  2114 PWs)   bands (ev):

    -3.6931   0.7624   3.4627   4.1888   7.9766  10.3602  11.3125  11.7523

     occupation numbers 
     1.0000   1.0000   1.0000   1.0000   0.0000   0.0000   0.0000   0.0000

          k =-0.2083 0.3750 0.2083 (  2119 PWs)   bands (ev):

    -4.7060   2.0967   5.0056   5.1316   8.6447   9.5198  10.3561  11.8593

     occupation numbers 
     1.0000   1.0000   1.0000   1.0000   0.0000   0.0000   0.0000   0.0000

          k =-0.2917 0.4583 0.1250 (  2117 PWs)   bands (ev):

    -4.3626   1.6343   3.9184   5.0848   8.9209   9.7233  10.8593  11.3726

     occupation numbers 
     1.0000   1.0000   1.0000   1.0000   0.0000   0.0000   0.0000   0.0000

          k =-0.3750 0.5417 0.0417 (  2119 PWs)   bands (ev):

    -3.8643   1.1111   2.8777   4.7696   9.4303   9.7113  11.1134  11.8474

     occupation numbers 
     1.0000   1.0000   1.0000   1.0000   0.0000   0.0000   0.0000   0.0000

          k = 0.5417-0.3750 0.9583 (  2122 PWs)   bands (ev):

    -3.2540   0.3604   2.3369   4.3663   9.0101  10.3856  11.5736  12.5822

     occupation numbers 
     1.0000   1.0000   1.0000   1.0000   0.0000   0.0000   0.0000   0.0000

          k = 0.4583-0.2917 0.8750 (  2130 PWs)   bands (ev):

    -2.6877  -0.3771   2.2616   4.0315   8.6261  10.6298  12.7465  12.8654

     occupation numbers 
     1.0000   1.0000   1.0000   1.0000   0.0000   0.0000   0.0000   0.0000

          k = 0.3750-0.2083 0.7917 (  2130 PWs)   bands (ev):

    -2.6596  -0.4194   2.4592   3.8410   8.3676  10.8261  11.5971  12.9371

     occupation numbers 
     1.0000   1.0000   1.0000   1.0000   0.0000   0.0000   0.0000   0.0000

          k = 0.2917-0.1250 0.7083 (  2123 PWs)   bands (ev):

    -3.2123   0.3192   2.8350   3.8403   8.2272  10.0894  11.2333  13.0342

     occupation numbers 
     1.0000   1.0000   1.0000   1.0000   0.0000   0.0000   0.0000   0.0000

          k =-0.2083 0.5417 0.2083 (  2120 PWs)   bands (ev):

    -4.0806   1.1932   4.0233   4.4281   8.2556  10.5705  10.7942  11.2457

     occupation numbers 
     1.0000   1.0000   1.0000   1.0000   0.0000   0.0000   0.0000   0.0000

          k =-0.2917 0.6250 0.1250 (  2115 PWs)   bands (ev):

    -3.6404   0.7574   3.1824   4.1935   8.4487  10.4078  10.6712  12.2772

     occupation numbers 
     1.0000   1.0000   1.0000   1.0000   0.0000   0.0000   0.0000   0.0000

          k = 0.6250-0.2917 1.0417 (  2125 PWs)   bands (ev):

    -3.0696   0.2460   2.4579   3.7543   9.3543  10.1034  10.4912  13.5963

     occupation numbers 
     1.0000   1.0000   1.0000   1.0000   0.0000   0.0000   0.0000   0.0000

          k = 0.5417-0.2083 0.9583 (  2135 PWs)   bands (ev):

    -2.4526  -0.3746   2.1194   3.3619   9.7488  10.1525  11.0511  13.3865

     occupation numbers 
     1.0000   1.0000   1.0000   1.0000   0.0000   0.0000   0.0000   0.0000

          k = 0.4583-0.1250 0.8750 (  2135 PWs)   bands (ev):

    -2.1662  -0.6797   2.1230   3.1835   9.4561  10.3983  11.5925  12.6668

     occupation numbers 
     1.0000   1.0000   1.0000   1.0000   0.0000   0.0000   0.0000   0.0000

          k = 0.3750-0.0417 0.7917 (  2132 PWs)   bands (ev):

    -2.6183  -0.1970   2.3484   3.3050   9.2331  10.0012  10.8715  14.4374

     occupation numbers 
     1.0000   1.0000   1.0000   1.0000   0.0000   0.0000   0.0000   0.0000

          k =-0.2083 0.7083 0.2083 (  2124 PWs)   bands (ev):

    -3.2624   0.3269   2.9627   3.9919   7.7270  10.0366  12.0700  12.3033

     occupation numbers 
     1.0000   1.0000   1.0000   1.0000   0.0000   0.0000   0.0000   0.0000

          k = 0.7083-0.2083 1.1250 (  2127 PWs)   bands (ev):

    -2.7494  -0.1358   2.5319   3.5846   8.0504   9.8495  11.8483  13.8124

     occupation numbers 
     1.0000   1.0000   1.0000   1.0000   0.0000   0.0000   0.0000   0.0000

          k = 0.6250-0.1250 1.0417 (  2144 PWs)   bands (ev):

    -2.1444  -0.6557   2.3091   2.9512   9.1526   9.8423  11.4631  13.6302

     occupation numbers 
     1.0000   1.0000   1.0000   1.0000   0.0000   0.0000   0.0000   0.0000

          k = 0.5417-0.0417 0.9583 (  2146 PWs)   bands (ev):

    -1.6421  -1.1049   2.2248   2.6275   9.9673  10.5397  11.2462  11.8617

     occupation numbers 
     1.0000   1.0000   1.0000   1.0000   0.0000   0.0000   0.0000   0.0000

          k = 0.4583 0.0417 0.8750 (  2144 PWs)   bands (ev):

    -2.0327  -0.7453   2.1370   2.9324   9.9774  10.3141  10.9709  12.5955

     occupation numbers 
     1.0000   1.0000   1.0000   1.0000   0.0000   0.0000   0.0000   0.0000

          k =-0.2083-1.1250 0.2083 (  2124 PWs)   bands (ev):

    -2.3136  -0.5986   2.2839   3.7396   7.3894   9.6418  13.5238  13.6421

     occupation numbers 
     1.0000   1.0000   1.0000   1.0000   0.0000   0.0000   0.0000   0.0000

          k =-0.2917-1.0417 0.1250 (  2132 PWs)   bands (ev):

    -1.8204  -1.0486   2.1922   3.3430   7.8657   9.6134  13.1921  13.9978

     occupation numbers 
     1.0000   1.0000   1.0000   1.0000   0.0000   0.0000   0.0000   0.0000

          k =-0.3750-0.9583 0.0417 (  2146 PWs)   bands (ev):

    -1.6730  -1.1167   2.3225   2.7353   9.1128   9.7571  12.1285  12.8588

     occupation numbers 
     1.0000   1.0000   1.0000   1.0000   0.0000   0.0000   0.0000   0.0000

          k =-0.2083-0.9583 0.2083 (  2131 PWs)   bands (ev):

    -1.8767  -1.0298   2.1439   3.6884   7.3190   9.5644  14.1041  14.4428

     occupation numbers 
     1.0000   1.0000   1.0000   1.0000   0.0000   0.0000   0.0000   0.0000

          k =-0.2917-0.8750 0.1250 (  2126 PWs)   bands (ev):

    -2.2670  -0.6078   2.3091   3.4218   7.9281   9.6916  12.5067  14.5234

     occupation numbers 
     1.0000   1.0000   1.0000   1.0000   0.0000   0.0000   0.0000   0.0000

          k =-0.2083-0.7917 0.2083 (  2130 PWs)   bands (ev):

    -2.7968  -0.1270   2.5609   3.8413   7.5274   9.7982  12.8490  12.8976

     occupation numbers 
     1.0000   1.0000   1.0000   1.0000   0.0000   0.0000   0.0000   0.0000

          k =-0.2917 0.2917 0.2917 (  2115 PWs)   bands (ev):

    -4.5993   1.6066   5.3402   5.3402   8.1659   9.7724   9.7724  13.7494

     occupation numbers 
     1.0000   1.0000   1.0000   1.0000   0.0000   0.0000   0.0000   0.0000

          k =-0.3750 0.3750 0.2083 (  2117 PWs)   bands (ev):

    -4.3214   1.1773   4.4524   5.3862   8.5852   9.7676   9.9297  13.2448

     occupation numbers 
     1.0000   1.0000   1.0000   1.0000   0.0000   0.0000   0.0000   0.0000

          k =-0.4583 0.4583 0.1250 (  2121 PWs)   bands (ev):

    -3.8841   0.8127   3.2387   5.1129   8.8753  10.3749  10.4108  12.9186

     occupation numbers 
     1.0000   1.0000   1.0000   1.0000   0.0000   0.0000   0.0000   0.0000

          k = 0.4583-0.4583 1.0417 (  2123 PWs)   bands (ev):

    -3.3158   0.3862   2.2942   4.7015   8.4855  11.3440  11.6105  12.8170

     occupation numbers 
     1.0000   1.0000   1.0000   1.0000   0.0000   0.0000   0.0000   0.0000

          k = 0.3750-0.3750 0.9583 (  2130 PWs)   bands (ev):

    -2.7017  -0.2368   1.9417   4.3080   8.0385  12.1677  12.3094  13.2211

     occupation numbers 
     1.0000   1.0000   1.0000   1.0000   0.0000   0.0000   0.0000   0.0000

          k = 0.2917-0.2917 0.8750 (  2134 PWs)   bands (ev):

    -2.3885  -0.6031   2.0937   4.0097   7.7085  11.2798  12.5751  12.7236

     occupation numbers 
     1.0000   1.0000   1.0000   1.0000   0.0000   0.0000   0.0000   0.0000

          k =-0.2917 0.4583 0.2917 (  2121 PWs)   bands (ev):

    -4.1117   0.7473   4.8020   4.8551   8.4731   9.5299  10.2388  12.6960

     occupation numbers 
     1.0000   1.0000   1.0000   1.0000   0.0000   0.0000   0.0000   0.0000

          k =-0.3750 0.5417 0.2083 (  2118 PWs)   bands (ev):

    -3.7435   0.4089   3.7309   4.7858   8.8912   9.5366  10.8233  12.3482

     occupation numbers 
     1.0000   1.0000   1.0000   1.0000   0.0000   0.0000   0.0000   0.0000

          k = 0.5417-0.3750 1.1250 (  2118 PWs)   bands (ev):

    -3.2371   0.1225   2.6638   4.4073   9.0440   9.9244  11.9749  12.2420

     occupation numbers 
     1.0000   1.0000   1.0000   1.0000   0.0000   0.0000   0.0000   0.0000

          k = 0.4583-0.2917 1.0417 (  2127 PWs)   bands (ev):

    -2.6393  -0.2626   1.9878   3.9711   8.5694  11.1721  12.2264  13.1076

     occupation numbers 
     1.0000   1.0000   1.0000   1.0000   0.0000   0.0000   0.0000   0.0000

          k = 0.3750-0.2083 0.9583 (  2128 PWs)   bands (ev):

    -2.1190  -0.7427   1.9146   3.6217   8.1776  11.2229  12.2475  13.0687

     occupation numbers 
     1.0000   1.0000   1.0000   1.0000   0.0000   0.0000   0.0000   0.0000

          k =-0.2917 0.6250 0.2917 (  2117 PWs)   bands (ev):

    -3.4520   0.0710   3.6269   4.4133   8.2698  10.4289  10.9933  11.9412

     occupation numbers 
     1.0000   1.0000   1.0000   1.0000   0.0000   0.0000   0.0000   0.0000

          k = 0.6250-0.2917 1.2083 (  2120 PWs)   bands (ev):

    -3.0285  -0.1835   2.8862   4.0737   8.5464  10.3112  11.7516  12.1909

     occupation numbers 
     1.0000   1.0000   1.0000   1.0000   0.0000   0.0000   0.0000   0.0000

          k = 0.5417-0.2083 1.1250 (  2128 PWs)   bands (ev):

    -2.5043  -0.4408   2.2552   3.5082   9.5499   9.8788  11.7157  13.4445

     occupation numbers 
     1.0000   1.0000   1.0000   1.0000   0.0000   0.0000   0.0000   0.0000

          k = 0.4583-0.1250 1.0417 (  2140 PWs)   bands (ev):

    -1.9333  -0.8507   2.0505   3.0106   9.4042  10.9011  11.5819  11.9860

     occupation numbers 
     1.0000   1.0000   1.0000   1.0000   0.0000   0.0000   0.0000   0.0000

          k =-0.2917-1.2083 0.2917 (  2123 PWs)   bands (ev):

    -2.7137  -0.4223   2.5023   4.1022   7.8455  11.3664  11.9960  12.0031

     occupation numbers 
     1.0000   1.0000   1.0000   1.0000   0.0000   0.0000   0.0000   0.0000

          k =-0.3750-1.1250 0.2083 (  2131 PWs)   bands (ev):

    -2.3312  -0.6150   2.1118   3.6933   8.2419  11.1849  11.7197  13.6161

     occupation numbers 
     1.0000   1.0000   1.0000   1.0000   0.0000   0.0000   0.0000   0.0000

          k =-0.2917-1.0417 0.2917 (  2132 PWs)   bands (ev):

    -2.1815  -0.7173   1.8668   3.9628   7.6383  11.2231  13.0946  13.4833

     occupation numbers 
     1.0000   1.0000   1.0000   1.0000   0.0000   0.0000   0.0000   0.0000

          k =-0.3750 0.3750 0.3750 (  2114 PWs)   bands (ev):

    -3.9793   0.3165   5.1446   5.1446   7.9495   9.6882   9.6882  14.1317

     occupation numbers 
     1.0000   1.0000   1.0000   1.0000   0.0000   0.0000   0.0000   0.0000

          k =-0.4583 0.4583 0.2917 (  2114 PWs)   bands (ev):

    -3.6935  -0.0006   4.3610   5.1078   8.4049   9.7194   9.7994  14.1106

     occupation numbers 
     1.0000   1.0000   1.0000   1.0000   0.0000   0.0000   0.0000   0.0000

          k = 0.4583-0.4583 1.2083 (  2121 PWs)   bands (ev):

    -3.2731  -0.1984   3.2050   4.7756   8.5649  10.3329  10.5457  14.1881

     occupation numbers 
     1.0000   1.0000   1.0000   1.0000   0.0000   0.0000   0.0000   0.0000

          k = 0.3750-0.3750 1.1250 (  2125 PWs)   bands (ev):

    -2.7493  -0.3673   2.2511   4.3471   8.0989  11.7084  11.7166  13.2036

     occupation numbers 
     1.0000   1.0000   1.0000   1.0000   0.0000   0.0000   0.0000   0.0000

          k =-0.3750 0.5417 0.3750 (  2110 PWs)   bands (ev):

    -3.5033  -0.3036   4.5490   4.8262   8.3488   9.4944  10.0225  13.8081

     occupation numbers 
     1.0000   1.0000   1.0000   1.0000   0.0000   0.0000   0.0000   0.0000

          k = 0.5417-0.3750 1.2917 (  2123 PWs)   bands (ev):

    -3.1947  -0.4561   3.6559   4.6094   8.8534   9.3787  10.7459  13.7035

     occupation numbers 
     1.0000   1.0000   1.0000   1.0000   0.0000   0.0000   0.0000   0.0000

          k = 0.4583-0.2917 1.2083 (  2121 PWs)   bands (ev):

    -2.7955  -0.4967   2.6989   4.1551   8.7326  10.0762  12.0927  13.3023

     occupation numbers 
     1.0000   1.0000   1.0000   1.0000   0.0000   0.0000   0.0000   0.0000

          k =-0.3750-1.2917 0.3750 (  2126 PWs)   bands (ev):

    -3.0277  -0.5526   3.3446   4.5334   8.3543  10.3288  10.7356  13.4326

     occupation numbers 
     1.0000   1.0000   1.0000   1.0000   0.0000   0.0000   0.0000   0.0000

          k =-0.4583 0.4583 0.4583 (  2117 PWs)   bands (ev):

    -3.4342  -0.5688   5.0454   5.0454   7.8376   9.5917   9.5917  14.0012

     occupation numbers 
     1.0000   1.0000   1.0000   1.0000   0.0000   0.0000   0.0000   0.0000

          k = 0.4583-0.4583 1.3750 (  2119 PWs)   bands (ev):

    -3.2689  -0.6492   4.3970   4.9145   8.3236   9.5489   9.8628  14.2873

     occupation numbers 
     1.0000   1.0000   1.0000   1.0000   0.0000   0.0000   0.0000   0.0000

     the Fermi energy is     6.5864 ev
     (compare with:     5.9402 eV, computed in scf)

     Writing output data file ../tmp/Si.save/

     init_run     :      0.36s CPU      0.43s WALL (       1 calls)
     electrons    :     51.91s CPU     54.45s WALL (       1 calls)

     Called by init_run:
     wfcinit      :      0.00s CPU      0.00s WALL (       1 calls)
     wfcinit:atom :      0.04s CPU      0.04s WALL (     182 calls)
     wfcinit:wfcr :      2.09s CPU      2.23s WALL (     182 calls)
     potinit      :      0.18s CPU      0.21s WALL (       1 calls)
     hinit0       :      0.07s CPU      0.07s WALL (       1 calls)

     Called by electrons:
     c_bands      :     51.91s CPU     54.42s WALL (       1 calls)
     v_of_rho     :      0.16s CPU      0.18s WALL (       1 calls)
     v_h          :      0.01s CPU      0.01s WALL (       1 calls)
     v_xc         :      0.15s CPU      0.17s WALL (       1 calls)

     Called by c_bands:
     init_us_2    :      0.04s CPU      0.05s WALL (     182 calls)
     cegterg      :     49.54s CPU     51.82s WALL (     394 calls)

     Called by sum_band:

     Called by *egterg:
     cdiaghg      :      1.01s CPU      1.05s WALL (    6169 calls)
     cegterg:over :      1.09s CPU      1.15s WALL (    5987 calls)
     cegterg:upda :      0.62s CPU      0.65s WALL (    5987 calls)
     cegterg:last :      0.92s CPU      0.96s WALL (    3907 calls)
     h_psi        :     46.91s CPU     49.11s WALL (    6563 calls)
     g_psi        :      0.64s CPU      0.67s WALL (    5987 calls)

     Called by h_psi:
     h_psi:calbec :      0.67s CPU      0.70s WALL (    6563 calls)
     vloc_psi     :     45.73s CPU     47.89s WALL (    6563 calls)
     add_vuspsi   :      0.36s CPU      0.38s WALL (    6563 calls)

     General routines
     calbec       :      0.65s CPU      0.68s WALL (    6563 calls)
     fft          :      0.10s CPU      0.11s WALL (      11 calls)
     ffts         :      0.00s CPU      0.00s WALL (       1 calls)
     fftw         :     41.82s CPU     43.81s WALL (   66752 calls)
     interpolate  :      0.01s CPU      0.01s WALL (       1 calls)
     davcio       :      0.03s CPU      0.07s WALL (     364 calls)

     Parallel routines
     fft_scatt_xy :      2.83s CPU      2.93s WALL (   66764 calls)
     fft_scatt_yz :      5.10s CPU      5.42s WALL (   66764 calls)

     PWSCF        :     52.61s CPU     55.34s WALL


   This run was terminated on:  12:24:42  30Nov2020            

=------------------------------------------------------------------------------=
   JOB DONE.
=------------------------------------------------------------------------------=
