
     Program PWSCF v.6.6 starts on 30Nov2020 at  1: 3:13 

     This program is part of the open-source Quantum ESPRESSO suite
     for quantum simulation of materials; please cite
         "P. Giannozzi et al., J. Phys.:Condens. Matter 21 395502 (2009);
         "P. Giannozzi et al., J. Phys.:Condens. Matter 29 465901 (2017);
          URL http://www.quantum-espresso.org", 
     in publications or presentations arising from this work. More details at
     http://www.quantum-espresso.org/quote

     Parallel version (MPI & OpenMP), running on       2 processor cores
     Number of MPI processes:                 2
     Threads/MPI process:                     1

     MPI processes distributed on     1 nodes
     R & G space division:  proc/nbgrp/npool/nimage =       2
     Fft bands division:     nmany     =       1
     Waiting for input...
     Reading input from standard input

     Current dimensions of program PWSCF are:
     Max number of different atomic species (ntypx) = 10
     Max number of k-points (npk) =  40000
     Max angular momentum in pseudopotentials (lmaxx) =  3

     Atomic positions and unit cell read from directory:
     ../tmp/FeAs2.save/
     Atomic positions from file used, from input discarded

     file Fe.pbesol-spn-kjpaw_psl.1.0.0.UPF: wavefunction(s)  3P 3D renormalized

     Subspace diagonalization in iterative solution of the eigenvalue problem:
     a serial algorithm will be used

     Message from routine setup:
     using ibrav=0 with symmetry is DISCOURAGED, use correct ibrav instead

     Parallelization info
     --------------------
     sticks:   dense  smooth     PW     G-vecs:    dense   smooth      PW
     Min        1754     585    168               122510    23547    3746
     Max        1755     586    169               122511    23548    3747
     Sum        3509    1171    337               245021    47095    7493



     bravais-lattice index     =            0
     lattice parameter (alat)  =       5.9467  a.u.
     unit-cell volume          =     750.7105 (a.u.)^3
     number of atoms/cell      =            6
     number of atomic types    =            2
     number of electrons       =        52.00
     number of Kohn-Sham states=           31
     kinetic-energy cutoff     =      60.0000  Ry
     charge density cutoff     =     720.0000  Ry
     Exchange-correlation= SLA PW PSX PSC
                           (   1   4  10   8   0   0   0)

     celldm(1)=   5.946739  celldm(2)=   0.000000  celldm(3)=   0.000000
     celldm(4)=   0.000000  celldm(5)=   0.000000  celldm(6)=   0.000000

     crystal axes: (cart. coord. in units of alat)
               a(1) = (   1.000000   0.000000   0.000000 )  
               a(2) = (   0.000000   1.732378   0.000000 )  
               a(3) = (   0.000000   0.000000   2.060598 )  

     reciprocal axes: (cart. coord. in units 2 pi/alat)
               b(1) = (  1.000000  0.000000  0.000000 )  
               b(2) = (  0.000000  0.577241  0.000000 )  
               b(3) = (  0.000000  0.000000  0.485296 )  


     PseudoPot. # 1 for Fe read from file:
     ../pseudo/Fe.pbesol-spn-kjpaw_psl.1.0.0.UPF
     MD5 check sum: e30d5f36a6f0cb983ee41abee56170da
     Pseudo is Projector augmented-wave + core cor, Zval = 16.0
     Generated using "atomic" code by A. Dal Corso v.6.3
     Shape of augmentation charge: PSQ
     Using radial grid of 1191 points,  6 beta functions with: 
                l(1) =   0
                l(2) =   0
                l(3) =   1
                l(4) =   1
                l(5) =   2
                l(6) =   2
     Q(r) pseudized with 0 coefficients 


     PseudoPot. # 2 for As read from file:
     ../pseudo/As.pbesol-n-kjpaw_psl.1.0.0.UPF
     MD5 check sum: 729a4e21d838b82f4af2cd0c2031e453
     Pseudo is Projector augmented-wave + core cor, Zval =  5.0
     Generated using "atomic" code by A. Dal Corso v.6.3
     Shape of augmentation charge: PSQ
     Using radial grid of 1209 points,  4 beta functions with: 
                l(1) =   0
                l(2) =   0
                l(3) =   1
                l(4) =   1
     Q(r) pseudized with 0 coefficients 


     atomic species   valence    mass     pseudopotential
        Fe            16.00    55.84500     Fe( 1.00)
        As             5.00    74.92200     As( 1.00)

      8 Sym. Ops., with inversion, found ( 4 have fractional translation)


                                    s                        frac. trans.

      isym =  1     identity                                     

 cryst.   s( 1) = (     1          0          0      )
                  (     0          1          0      )
                  (     0          0          1      )

 cart.    s( 1) = (  1.0000000  0.0000000  0.0000000 )
                  (  0.0000000  1.0000000  0.0000000 )
                  (  0.0000000  0.0000000  1.0000000 )


      isym =  2     180 deg rotation - cart. axis [0,0,1]        

 cryst.   s( 2) = (    -1          0          0      )    f =( -0.5000000 )
                  (     0         -1          0      )       (  0.5000000 )
                  (     0          0          1      )       ( -0.5000000 )

 cart.    s( 2) = ( -1.0000000  0.0000000  0.0000000 )    f =( -0.5000000 )
                  (  0.0000000 -1.0000000  0.0000000 )       (  0.8661888 )
                  (  0.0000000  0.0000000  1.0000000 )       ( -1.0302989 )


      isym =  3     180 deg rotation - cart. axis [0,1,0]        

 cryst.   s( 3) = (    -1          0          0      )    f =( -0.5000000 )
                  (     0          1          0      )       ( -0.5000000 )
                  (     0          0         -1      )       (  0.5000000 )

 cart.    s( 3) = ( -1.0000000  0.0000000  0.0000000 )    f =( -0.5000000 )
                  (  0.0000000  1.0000000  0.0000000 )       ( -0.8661888 )
                  (  0.0000000  0.0000000 -1.0000000 )       (  1.0302989 )


      isym =  4     180 deg rotation - cart. axis [1,0,0]        

 cryst.   s( 4) = (     1          0          0      )
                  (     0         -1          0      )
                  (     0          0         -1      )

 cart.    s( 4) = (  1.0000000  0.0000000  0.0000000 )
                  (  0.0000000 -1.0000000  0.0000000 )
                  (  0.0000000  0.0000000 -1.0000000 )


      isym =  5     inversion                                    

 cryst.   s( 5) = (    -1          0          0      )
                  (     0         -1          0      )
                  (     0          0         -1      )

 cart.    s( 5) = ( -1.0000000  0.0000000  0.0000000 )
                  (  0.0000000 -1.0000000  0.0000000 )
                  (  0.0000000  0.0000000 -1.0000000 )


      isym =  6     inv. 180 deg rotation - cart. axis [0,0,1]   

 cryst.   s( 6) = (     1          0          0      )    f =(  0.5000000 )
                  (     0          1          0      )       ( -0.5000000 )
                  (     0          0         -1      )       (  0.5000000 )

 cart.    s( 6) = (  1.0000000  0.0000000  0.0000000 )    f =(  0.5000000 )
                  (  0.0000000  1.0000000  0.0000000 )       ( -0.8661888 )
                  (  0.0000000  0.0000000 -1.0000000 )       (  1.0302989 )


      isym =  7     inv. 180 deg rotation - cart. axis [0,1,0]   

 cryst.   s( 7) = (     1          0          0      )    f =(  0.5000000 )
                  (     0         -1          0      )       (  0.5000000 )
                  (     0          0          1      )       ( -0.5000000 )

 cart.    s( 7) = (  1.0000000  0.0000000  0.0000000 )    f =(  0.5000000 )
                  (  0.0000000 -1.0000000  0.0000000 )       (  0.8661888 )
                  (  0.0000000  0.0000000  1.0000000 )       ( -1.0302989 )


      isym =  8     inv. 180 deg rotation - cart. axis [1,0,0]   

 cryst.   s( 8) = (    -1          0          0      )
                  (     0          1          0      )
                  (     0          0          1      )

 cart.    s( 8) = ( -1.0000000  0.0000000  0.0000000 )
                  (  0.0000000  1.0000000  0.0000000 )
                  (  0.0000000  0.0000000  1.0000000 )


   Cartesian axes

     site n.     atom                  positions (alat units)
         1           As  tau(   1) = (   0.0000000   0.2907302   1.2960374  )
         2           As  tau(   2) = (   0.0000000   1.4416474   0.7645604  )
         3           As  tau(   3) = (   0.5000000   0.5754586   0.2657385  )
         4           As  tau(   4) = (   0.5000000   1.1569190   1.7948592  )
         5           Fe  tau(   5) = (   0.0000000   0.0000000   0.0000000  )
         6           Fe  tau(   6) = (   0.5000000   0.8661888   1.0302989  )

   Crystallographic axes

     site n.     atom                  positions (cryst. coord.)
         1           As  tau(   1) = (  0.0000000  0.1678215  0.6289619  )
         2           As  tau(   2) = (  0.0000000  0.8321785  0.3710381  )
         3           As  tau(   3) = (  0.5000000  0.3321785  0.1289619  )
         4           As  tau(   4) = (  0.5000000  0.6678215  0.8710381  )
         5           Fe  tau(   5) = (  0.0000000  0.0000000  0.0000000  )
         6           Fe  tau(   6) = (  0.5000000  0.5000000  0.5000000  )

     number of k points=   300  Gaussian smearing, width (Ry)=  0.0050
                       cart. coord. in units 2pi/alat
        k(    1) = (   0.0263158   0.0262382   0.0269609), wk =   0.0085061
        k(    2) = (   0.0263158   0.0262382   0.0808827), wk =   0.0085061
        k(    3) = (   0.0263158   0.0262382   0.1348045), wk =   0.0085061
        k(    4) = (   0.0263158   0.0262382   0.1887263), wk =   0.0085061
        k(    5) = (   0.0263158   0.0262382  -0.2426480), wk =   0.0042531
        k(    6) = (   0.0263158   0.0787147   0.0269609), wk =   0.0085061
        k(    7) = (   0.0263158   0.0787147   0.0808827), wk =   0.0085061
        k(    8) = (   0.0263158   0.0787147   0.1348045), wk =   0.0085061
        k(    9) = (   0.0263158   0.0787147   0.1887263), wk =   0.0085061
        k(   10) = (   0.0263158   0.0787147  -0.2426480), wk =   0.0042531
        k(   11) = (   0.0263158   0.1311912   0.0269609), wk =   0.0085061
        k(   12) = (   0.0263158   0.1311912   0.0808827), wk =   0.0085061
        k(   13) = (   0.0263158   0.1311912   0.1348045), wk =   0.0085061
        k(   14) = (   0.0263158   0.1311912   0.1887263), wk =   0.0085061
        k(   15) = (   0.0263158   0.1311912  -0.2426480), wk =   0.0042531
        k(   16) = (   0.0263158   0.1836677   0.0269609), wk =   0.0085061
        k(   17) = (   0.0263158   0.1836677   0.0808827), wk =   0.0085061
        k(   18) = (   0.0263158   0.1836677   0.1348045), wk =   0.0085061
        k(   19) = (   0.0263158   0.1836677   0.1887263), wk =   0.0085061
        k(   20) = (   0.0263158   0.1836677  -0.2426480), wk =   0.0042531
        k(   21) = (   0.0263158   0.2361442   0.0269609), wk =   0.0085061
        k(   22) = (   0.0263158   0.2361442   0.0808827), wk =   0.0085061
        k(   23) = (   0.0263158   0.2361442   0.1348045), wk =   0.0085061
        k(   24) = (   0.0263158   0.2361442   0.1887263), wk =   0.0085061
        k(   25) = (   0.0263158   0.2361442  -0.2426480), wk =   0.0042531
        k(   26) = (   0.0263158  -0.2886207   0.0269609), wk =   0.0042531
        k(   27) = (   0.0263158  -0.2886207   0.0808827), wk =   0.0042531
        k(   28) = (   0.0263158  -0.2886207   0.1348045), wk =   0.0042531
        k(   29) = (   0.0263158  -0.2886207   0.1887263), wk =   0.0042531
        k(   30) = (   0.0263158  -0.2886207  -0.2426480), wk =   0.0021265
        k(   31) = (   0.0789474   0.0262382   0.0269609), wk =   0.0085061
        k(   32) = (   0.0789474   0.0262382   0.0808827), wk =   0.0085061
        k(   33) = (   0.0789474   0.0262382   0.1348045), wk =   0.0085061
        k(   34) = (   0.0789474   0.0262382   0.1887263), wk =   0.0085061
        k(   35) = (   0.0789474   0.0262382  -0.2426480), wk =   0.0042531
        k(   36) = (   0.0789474   0.0787147   0.0269609), wk =   0.0085061
        k(   37) = (   0.0789474   0.0787147   0.0808827), wk =   0.0085061
        k(   38) = (   0.0789474   0.0787147   0.1348045), wk =   0.0085061
        k(   39) = (   0.0789474   0.0787147   0.1887263), wk =   0.0085061
        k(   40) = (   0.0789474   0.0787147  -0.2426480), wk =   0.0042531
        k(   41) = (   0.0789474   0.1311912   0.0269609), wk =   0.0085061
        k(   42) = (   0.0789474   0.1311912   0.0808827), wk =   0.0085061
        k(   43) = (   0.0789474   0.1311912   0.1348045), wk =   0.0085061
        k(   44) = (   0.0789474   0.1311912   0.1887263), wk =   0.0085061
        k(   45) = (   0.0789474   0.1311912  -0.2426480), wk =   0.0042531
        k(   46) = (   0.0789474   0.1836677   0.0269609), wk =   0.0085061
        k(   47) = (   0.0789474   0.1836677   0.0808827), wk =   0.0085061
        k(   48) = (   0.0789474   0.1836677   0.1348045), wk =   0.0085061
        k(   49) = (   0.0789474   0.1836677   0.1887263), wk =   0.0085061
        k(   50) = (   0.0789474   0.1836677  -0.2426480), wk =   0.0042531
        k(   51) = (   0.0789474   0.2361442   0.0269609), wk =   0.0085061
        k(   52) = (   0.0789474   0.2361442   0.0808827), wk =   0.0085061
        k(   53) = (   0.0789474   0.2361442   0.1348045), wk =   0.0085061
        k(   54) = (   0.0789474   0.2361442   0.1887263), wk =   0.0085061
        k(   55) = (   0.0789474   0.2361442  -0.2426480), wk =   0.0042531
        k(   56) = (   0.0789474  -0.2886207   0.0269609), wk =   0.0042531
        k(   57) = (   0.0789474  -0.2886207   0.0808827), wk =   0.0042531
        k(   58) = (   0.0789474  -0.2886207   0.1348045), wk =   0.0042531
        k(   59) = (   0.0789474  -0.2886207   0.1887263), wk =   0.0042531
        k(   60) = (   0.0789474  -0.2886207  -0.2426480), wk =   0.0021265
        k(   61) = (   0.1315789   0.0262382   0.0269609), wk =   0.0085061
        k(   62) = (   0.1315789   0.0262382   0.0808827), wk =   0.0085061
        k(   63) = (   0.1315789   0.0262382   0.1348045), wk =   0.0085061
        k(   64) = (   0.1315789   0.0262382   0.1887263), wk =   0.0085061
        k(   65) = (   0.1315789   0.0262382  -0.2426480), wk =   0.0042531
        k(   66) = (   0.1315789   0.0787147   0.0269609), wk =   0.0085061
        k(   67) = (   0.1315789   0.0787147   0.0808827), wk =   0.0085061
        k(   68) = (   0.1315789   0.0787147   0.1348045), wk =   0.0085061
        k(   69) = (   0.1315789   0.0787147   0.1887263), wk =   0.0085061
        k(   70) = (   0.1315789   0.0787147  -0.2426480), wk =   0.0042531
        k(   71) = (   0.1315789   0.1311912   0.0269609), wk =   0.0085061
        k(   72) = (   0.1315789   0.1311912   0.0808827), wk =   0.0085061
        k(   73) = (   0.1315789   0.1311912   0.1348045), wk =   0.0085061
        k(   74) = (   0.1315789   0.1311912   0.1887263), wk =   0.0085061
        k(   75) = (   0.1315789   0.1311912  -0.2426480), wk =   0.0042531
        k(   76) = (   0.1315789   0.1836677   0.0269609), wk =   0.0085061
        k(   77) = (   0.1315789   0.1836677   0.0808827), wk =   0.0085061
        k(   78) = (   0.1315789   0.1836677   0.1348045), wk =   0.0085061
        k(   79) = (   0.1315789   0.1836677   0.1887263), wk =   0.0085061
        k(   80) = (   0.1315789   0.1836677  -0.2426480), wk =   0.0042531
        k(   81) = (   0.1315789   0.2361442   0.0269609), wk =   0.0085061
        k(   82) = (   0.1315789   0.2361442   0.0808827), wk =   0.0085061
        k(   83) = (   0.1315789   0.2361442   0.1348045), wk =   0.0085061
        k(   84) = (   0.1315789   0.2361442   0.1887263), wk =   0.0085061
        k(   85) = (   0.1315789   0.2361442  -0.2426480), wk =   0.0042531
        k(   86) = (   0.1315789  -0.2886207   0.0269609), wk =   0.0042531
        k(   87) = (   0.1315789  -0.2886207   0.0808827), wk =   0.0042531
        k(   88) = (   0.1315789  -0.2886207   0.1348045), wk =   0.0042531
        k(   89) = (   0.1315789  -0.2886207   0.1887263), wk =   0.0042531
        k(   90) = (   0.1315789  -0.2886207  -0.2426480), wk =   0.0021265
        k(   91) = (   0.1842105   0.0262382   0.0269609), wk =   0.0085061
        k(   92) = (   0.1842105   0.0262382   0.0808827), wk =   0.0085061
        k(   93) = (   0.1842105   0.0262382   0.1348045), wk =   0.0085061
        k(   94) = (   0.1842105   0.0262382   0.1887263), wk =   0.0085061
        k(   95) = (   0.1842105   0.0262382  -0.2426480), wk =   0.0042531
        k(   96) = (   0.1842105   0.0787147   0.0269609), wk =   0.0085061
        k(   97) = (   0.1842105   0.0787147   0.0808827), wk =   0.0085061
        k(   98) = (   0.1842105   0.0787147   0.1348045), wk =   0.0085061
        k(   99) = (   0.1842105   0.0787147   0.1887263), wk =   0.0085061
        k(  100) = (   0.1842105   0.0787147  -0.2426480), wk =   0.0042531
        k(  101) = (   0.1842105   0.1311912   0.0269609), wk =   0.0085061
        k(  102) = (   0.1842105   0.1311912   0.0808827), wk =   0.0085061
        k(  103) = (   0.1842105   0.1311912   0.1348045), wk =   0.0085061
        k(  104) = (   0.1842105   0.1311912   0.1887263), wk =   0.0085061
        k(  105) = (   0.1842105   0.1311912  -0.2426480), wk =   0.0042531
        k(  106) = (   0.1842105   0.1836677   0.0269609), wk =   0.0085061
        k(  107) = (   0.1842105   0.1836677   0.0808827), wk =   0.0085061
        k(  108) = (   0.1842105   0.1836677   0.1348045), wk =   0.0085061
        k(  109) = (   0.1842105   0.1836677   0.1887263), wk =   0.0085061
        k(  110) = (   0.1842105   0.1836677  -0.2426480), wk =   0.0042531
        k(  111) = (   0.1842105   0.2361442   0.0269609), wk =   0.0085061
        k(  112) = (   0.1842105   0.2361442   0.0808827), wk =   0.0085061
        k(  113) = (   0.1842105   0.2361442   0.1348045), wk =   0.0085061
        k(  114) = (   0.1842105   0.2361442   0.1887263), wk =   0.0085061
        k(  115) = (   0.1842105   0.2361442  -0.2426480), wk =   0.0042531
        k(  116) = (   0.1842105  -0.2886207   0.0269609), wk =   0.0042531
        k(  117) = (   0.1842105  -0.2886207   0.0808827), wk =   0.0042531
        k(  118) = (   0.1842105  -0.2886207   0.1348045), wk =   0.0042531
        k(  119) = (   0.1842105  -0.2886207   0.1887263), wk =   0.0042531
        k(  120) = (   0.1842105  -0.2886207  -0.2426480), wk =   0.0021265
        k(  121) = (   0.2368421   0.0262382   0.0269609), wk =   0.0085061
        k(  122) = (   0.2368421   0.0262382   0.0808827), wk =   0.0085061
        k(  123) = (   0.2368421   0.0262382   0.1348045), wk =   0.0085061
        k(  124) = (   0.2368421   0.0262382   0.1887263), wk =   0.0085061
        k(  125) = (   0.2368421   0.0262382  -0.2426480), wk =   0.0042531
        k(  126) = (   0.2368421   0.0787147   0.0269609), wk =   0.0085061
        k(  127) = (   0.2368421   0.0787147   0.0808827), wk =   0.0085061
        k(  128) = (   0.2368421   0.0787147   0.1348045), wk =   0.0085061
        k(  129) = (   0.2368421   0.0787147   0.1887263), wk =   0.0085061
        k(  130) = (   0.2368421   0.0787147  -0.2426480), wk =   0.0042531
        k(  131) = (   0.2368421   0.1311912   0.0269609), wk =   0.0085061
        k(  132) = (   0.2368421   0.1311912   0.0808827), wk =   0.0085061
        k(  133) = (   0.2368421   0.1311912   0.1348045), wk =   0.0085061
        k(  134) = (   0.2368421   0.1311912   0.1887263), wk =   0.0085061
        k(  135) = (   0.2368421   0.1311912  -0.2426480), wk =   0.0042531
        k(  136) = (   0.2368421   0.1836677   0.0269609), wk =   0.0085061
        k(  137) = (   0.2368421   0.1836677   0.0808827), wk =   0.0085061
        k(  138) = (   0.2368421   0.1836677   0.1348045), wk =   0.0085061
        k(  139) = (   0.2368421   0.1836677   0.1887263), wk =   0.0085061
        k(  140) = (   0.2368421   0.1836677  -0.2426480), wk =   0.0042531
        k(  141) = (   0.2368421   0.2361442   0.0269609), wk =   0.0085061
        k(  142) = (   0.2368421   0.2361442   0.0808827), wk =   0.0085061
        k(  143) = (   0.2368421   0.2361442   0.1348045), wk =   0.0085061
        k(  144) = (   0.2368421   0.2361442   0.1887263), wk =   0.0085061
        k(  145) = (   0.2368421   0.2361442  -0.2426480), wk =   0.0042531
        k(  146) = (   0.2368421  -0.2886207   0.0269609), wk =   0.0042531
        k(  147) = (   0.2368421  -0.2886207   0.0808827), wk =   0.0042531
        k(  148) = (   0.2368421  -0.2886207   0.1348045), wk =   0.0042531
        k(  149) = (   0.2368421  -0.2886207   0.1887263), wk =   0.0042531
        k(  150) = (   0.2368421  -0.2886207  -0.2426480), wk =   0.0021265
        k(  151) = (   0.2894737   0.0262382   0.0269609), wk =   0.0085061
        k(  152) = (   0.2894737   0.0262382   0.0808827), wk =   0.0085061
        k(  153) = (   0.2894737   0.0262382   0.1348045), wk =   0.0085061
        k(  154) = (   0.2894737   0.0262382   0.1887263), wk =   0.0085061
        k(  155) = (   0.2894737   0.0262382  -0.2426480), wk =   0.0042531
        k(  156) = (   0.2894737   0.0787147   0.0269609), wk =   0.0085061
        k(  157) = (   0.2894737   0.0787147   0.0808827), wk =   0.0085061
        k(  158) = (   0.2894737   0.0787147   0.1348045), wk =   0.0085061
        k(  159) = (   0.2894737   0.0787147   0.1887263), wk =   0.0085061
        k(  160) = (   0.2894737   0.0787147  -0.2426480), wk =   0.0042531
        k(  161) = (   0.2894737   0.1311912   0.0269609), wk =   0.0085061
        k(  162) = (   0.2894737   0.1311912   0.0808827), wk =   0.0085061
        k(  163) = (   0.2894737   0.1311912   0.1348045), wk =   0.0085061
        k(  164) = (   0.2894737   0.1311912   0.1887263), wk =   0.0085061
        k(  165) = (   0.2894737   0.1311912  -0.2426480), wk =   0.0042531
        k(  166) = (   0.2894737   0.1836677   0.0269609), wk =   0.0085061
        k(  167) = (   0.2894737   0.1836677   0.0808827), wk =   0.0085061
        k(  168) = (   0.2894737   0.1836677   0.1348045), wk =   0.0085061
        k(  169) = (   0.2894737   0.1836677   0.1887263), wk =   0.0085061
        k(  170) = (   0.2894737   0.1836677  -0.2426480), wk =   0.0042531
        k(  171) = (   0.2894737   0.2361442   0.0269609), wk =   0.0085061
        k(  172) = (   0.2894737   0.2361442   0.0808827), wk =   0.0085061
        k(  173) = (   0.2894737   0.2361442   0.1348045), wk =   0.0085061
        k(  174) = (   0.2894737   0.2361442   0.1887263), wk =   0.0085061
        k(  175) = (   0.2894737   0.2361442  -0.2426480), wk =   0.0042531
        k(  176) = (   0.2894737  -0.2886207   0.0269609), wk =   0.0042531
        k(  177) = (   0.2894737  -0.2886207   0.0808827), wk =   0.0042531
        k(  178) = (   0.2894737  -0.2886207   0.1348045), wk =   0.0042531
        k(  179) = (   0.2894737  -0.2886207   0.1887263), wk =   0.0042531
        k(  180) = (   0.2894737  -0.2886207  -0.2426480), wk =   0.0021265
        k(  181) = (   0.3421053   0.0262382   0.0269609), wk =   0.0085061
        k(  182) = (   0.3421053   0.0262382   0.0808827), wk =   0.0085061
        k(  183) = (   0.3421053   0.0262382   0.1348045), wk =   0.0085061
        k(  184) = (   0.3421053   0.0262382   0.1887263), wk =   0.0085061
        k(  185) = (   0.3421053   0.0262382  -0.2426480), wk =   0.0042531
        k(  186) = (   0.3421053   0.0787147   0.0269609), wk =   0.0085061
        k(  187) = (   0.3421053   0.0787147   0.0808827), wk =   0.0085061
        k(  188) = (   0.3421053   0.0787147   0.1348045), wk =   0.0085061
        k(  189) = (   0.3421053   0.0787147   0.1887263), wk =   0.0085061
        k(  190) = (   0.3421053   0.0787147  -0.2426480), wk =   0.0042531
        k(  191) = (   0.3421053   0.1311912   0.0269609), wk =   0.0085061
        k(  192) = (   0.3421053   0.1311912   0.0808827), wk =   0.0085061
        k(  193) = (   0.3421053   0.1311912   0.1348045), wk =   0.0085061
        k(  194) = (   0.3421053   0.1311912   0.1887263), wk =   0.0085061
        k(  195) = (   0.3421053   0.1311912  -0.2426480), wk =   0.0042531
        k(  196) = (   0.3421053   0.1836677   0.0269609), wk =   0.0085061
        k(  197) = (   0.3421053   0.1836677   0.0808827), wk =   0.0085061
        k(  198) = (   0.3421053   0.1836677   0.1348045), wk =   0.0085061
        k(  199) = (   0.3421053   0.1836677   0.1887263), wk =   0.0085061
        k(  200) = (   0.3421053   0.1836677  -0.2426480), wk =   0.0042531
        k(  201) = (   0.3421053   0.2361442   0.0269609), wk =   0.0085061
        k(  202) = (   0.3421053   0.2361442   0.0808827), wk =   0.0085061
        k(  203) = (   0.3421053   0.2361442   0.1348045), wk =   0.0085061
        k(  204) = (   0.3421053   0.2361442   0.1887263), wk =   0.0085061
        k(  205) = (   0.3421053   0.2361442  -0.2426480), wk =   0.0042531
        k(  206) = (   0.3421053  -0.2886207   0.0269609), wk =   0.0042531
        k(  207) = (   0.3421053  -0.2886207   0.0808827), wk =   0.0042531
        k(  208) = (   0.3421053  -0.2886207   0.1348045), wk =   0.0042531
        k(  209) = (   0.3421053  -0.2886207   0.1887263), wk =   0.0042531
        k(  210) = (   0.3421053  -0.2886207  -0.2426480), wk =   0.0021265
        k(  211) = (   0.3947368   0.0262382   0.0269609), wk =   0.0085061
        k(  212) = (   0.3947368   0.0262382   0.0808827), wk =   0.0085061
        k(  213) = (   0.3947368   0.0262382   0.1348045), wk =   0.0085061
        k(  214) = (   0.3947368   0.0262382   0.1887263), wk =   0.0085061
        k(  215) = (   0.3947368   0.0262382  -0.2426480), wk =   0.0042531
        k(  216) = (   0.3947368   0.0787147   0.0269609), wk =   0.0085061
        k(  217) = (   0.3947368   0.0787147   0.0808827), wk =   0.0085061
        k(  218) = (   0.3947368   0.0787147   0.1348045), wk =   0.0085061
        k(  219) = (   0.3947368   0.0787147   0.1887263), wk =   0.0085061
        k(  220) = (   0.3947368   0.0787147  -0.2426480), wk =   0.0042531
        k(  221) = (   0.3947368   0.1311912   0.0269609), wk =   0.0085061
        k(  222) = (   0.3947368   0.1311912   0.0808827), wk =   0.0085061
        k(  223) = (   0.3947368   0.1311912   0.1348045), wk =   0.0085061
        k(  224) = (   0.3947368   0.1311912   0.1887263), wk =   0.0085061
        k(  225) = (   0.3947368   0.1311912  -0.2426480), wk =   0.0042531
        k(  226) = (   0.3947368   0.1836677   0.0269609), wk =   0.0085061
        k(  227) = (   0.3947368   0.1836677   0.0808827), wk =   0.0085061
        k(  228) = (   0.3947368   0.1836677   0.1348045), wk =   0.0085061
        k(  229) = (   0.3947368   0.1836677   0.1887263), wk =   0.0085061
        k(  230) = (   0.3947368   0.1836677  -0.2426480), wk =   0.0042531
        k(  231) = (   0.3947368   0.2361442   0.0269609), wk =   0.0085061
        k(  232) = (   0.3947368   0.2361442   0.0808827), wk =   0.0085061
        k(  233) = (   0.3947368   0.2361442   0.1348045), wk =   0.0085061
        k(  234) = (   0.3947368   0.2361442   0.1887263), wk =   0.0085061
        k(  235) = (   0.3947368   0.2361442  -0.2426480), wk =   0.0042531
        k(  236) = (   0.3947368  -0.2886207   0.0269609), wk =   0.0042531
        k(  237) = (   0.3947368  -0.2886207   0.0808827), wk =   0.0042531
        k(  238) = (   0.3947368  -0.2886207   0.1348045), wk =   0.0042531
        k(  239) = (   0.3947368  -0.2886207   0.1887263), wk =   0.0042531
        k(  240) = (   0.3947368  -0.2886207  -0.2426480), wk =   0.0021265
        k(  241) = (   0.4473684   0.0262382   0.0269609), wk =   0.0085061
        k(  242) = (   0.4473684   0.0262382   0.0808827), wk =   0.0085061
        k(  243) = (   0.4473684   0.0262382   0.1348045), wk =   0.0085061
        k(  244) = (   0.4473684   0.0262382   0.1887263), wk =   0.0085061
        k(  245) = (   0.4473684   0.0262382  -0.2426480), wk =   0.0042531
        k(  246) = (   0.4473684   0.0787147   0.0269609), wk =   0.0085061
        k(  247) = (   0.4473684   0.0787147   0.0808827), wk =   0.0085061
        k(  248) = (   0.4473684   0.0787147   0.1348045), wk =   0.0085061
        k(  249) = (   0.4473684   0.0787147   0.1887263), wk =   0.0085061
        k(  250) = (   0.4473684   0.0787147  -0.2426480), wk =   0.0042531
        k(  251) = (   0.4473684   0.1311912   0.0269609), wk =   0.0085061
        k(  252) = (   0.4473684   0.1311912   0.0808827), wk =   0.0085061
        k(  253) = (   0.4473684   0.1311912   0.1348045), wk =   0.0085061
        k(  254) = (   0.4473684   0.1311912   0.1887263), wk =   0.0085061
        k(  255) = (   0.4473684   0.1311912  -0.2426480), wk =   0.0042531
        k(  256) = (   0.4473684   0.1836677   0.0269609), wk =   0.0085061
        k(  257) = (   0.4473684   0.1836677   0.0808827), wk =   0.0085061
        k(  258) = (   0.4473684   0.1836677   0.1348045), wk =   0.0085061
        k(  259) = (   0.4473684   0.1836677   0.1887263), wk =   0.0085061
        k(  260) = (   0.4473684   0.1836677  -0.2426480), wk =   0.0042531
        k(  261) = (   0.4473684   0.2361442   0.0269609), wk =   0.0085061
        k(  262) = (   0.4473684   0.2361442   0.0808827), wk =   0.0085061
        k(  263) = (   0.4473684   0.2361442   0.1348045), wk =   0.0085061
        k(  264) = (   0.4473684   0.2361442   0.1887263), wk =   0.0085061
        k(  265) = (   0.4473684   0.2361442  -0.2426480), wk =   0.0042531
        k(  266) = (   0.4473684  -0.2886207   0.0269609), wk =   0.0042531
        k(  267) = (   0.4473684  -0.2886207   0.0808827), wk =   0.0042531
        k(  268) = (   0.4473684  -0.2886207   0.1348045), wk =   0.0042531
        k(  269) = (   0.4473684  -0.2886207   0.1887263), wk =   0.0042531
        k(  270) = (   0.4473684  -0.2886207  -0.2426480), wk =   0.0021265
        k(  271) = (  -0.5000000   0.0262382   0.0269609), wk =   0.0042531
        k(  272) = (  -0.5000000   0.0262382   0.0808827), wk =   0.0042531
        k(  273) = (  -0.5000000   0.0262382   0.1348045), wk =   0.0042531
        k(  274) = (  -0.5000000   0.0262382   0.1887263), wk =   0.0042531
        k(  275) = (  -0.5000000   0.0262382  -0.2426480), wk =   0.0021265
        k(  276) = (  -0.5000000   0.0787147   0.0269609), wk =   0.0042531
        k(  277) = (  -0.5000000   0.0787147   0.0808827), wk =   0.0042531
        k(  278) = (  -0.5000000   0.0787147   0.1348045), wk =   0.0042531
        k(  279) = (  -0.5000000   0.0787147   0.1887263), wk =   0.0042531
        k(  280) = (  -0.5000000   0.0787147  -0.2426480), wk =   0.0021265
        k(  281) = (  -0.5000000   0.1311912   0.0269609), wk =   0.0042531
        k(  282) = (  -0.5000000   0.1311912   0.0808827), wk =   0.0042531
        k(  283) = (  -0.5000000   0.1311912   0.1348045), wk =   0.0042531
        k(  284) = (  -0.5000000   0.1311912   0.1887263), wk =   0.0042531
        k(  285) = (  -0.5000000   0.1311912  -0.2426480), wk =   0.0021265
        k(  286) = (  -0.5000000   0.1836677   0.0269609), wk =   0.0042531
        k(  287) = (  -0.5000000   0.1836677   0.0808827), wk =   0.0042531
        k(  288) = (  -0.5000000   0.1836677   0.1348045), wk =   0.0042531
        k(  289) = (  -0.5000000   0.1836677   0.1887263), wk =   0.0042531
        k(  290) = (  -0.5000000   0.1836677  -0.2426480), wk =   0.0021265
        k(  291) = (  -0.5000000   0.2361442   0.0269609), wk =   0.0042531
        k(  292) = (  -0.5000000   0.2361442   0.0808827), wk =   0.0042531
        k(  293) = (  -0.5000000   0.2361442   0.1348045), wk =   0.0042531
        k(  294) = (  -0.5000000   0.2361442   0.1887263), wk =   0.0042531
        k(  295) = (  -0.5000000   0.2361442  -0.2426480), wk =   0.0021265
        k(  296) = (  -0.5000000  -0.2886207   0.0269609), wk =   0.0021265
        k(  297) = (  -0.5000000  -0.2886207   0.0808827), wk =   0.0021265
        k(  298) = (  -0.5000000  -0.2886207   0.1348045), wk =   0.0021265
        k(  299) = (  -0.5000000  -0.2886207   0.1887263), wk =   0.0021265
        k(  300) = (  -0.5000000  -0.2886207  -0.2426480), wk =   0.0010633

                       cryst. coord.
        k(    1) = (   0.0263158   0.0454545   0.0555556), wk =   0.0085061
        k(    2) = (   0.0263158   0.0454545   0.1666667), wk =   0.0085061
        k(    3) = (   0.0263158   0.0454545   0.2777778), wk =   0.0085061
        k(    4) = (   0.0263158   0.0454545   0.3888889), wk =   0.0085061
        k(    5) = (   0.0263158   0.0454545  -0.5000000), wk =   0.0042531
        k(    6) = (   0.0263158   0.1363636   0.0555556), wk =   0.0085061
        k(    7) = (   0.0263158   0.1363636   0.1666667), wk =   0.0085061
        k(    8) = (   0.0263158   0.1363636   0.2777778), wk =   0.0085061
        k(    9) = (   0.0263158   0.1363636   0.3888889), wk =   0.0085061
        k(   10) = (   0.0263158   0.1363636  -0.5000000), wk =   0.0042531
        k(   11) = (   0.0263158   0.2272727   0.0555556), wk =   0.0085061
        k(   12) = (   0.0263158   0.2272727   0.1666667), wk =   0.0085061
        k(   13) = (   0.0263158   0.2272727   0.2777778), wk =   0.0085061
        k(   14) = (   0.0263158   0.2272727   0.3888889), wk =   0.0085061
        k(   15) = (   0.0263158   0.2272727  -0.5000000), wk =   0.0042531
        k(   16) = (   0.0263158   0.3181818   0.0555556), wk =   0.0085061
        k(   17) = (   0.0263158   0.3181818   0.1666667), wk =   0.0085061
        k(   18) = (   0.0263158   0.3181818   0.2777778), wk =   0.0085061
        k(   19) = (   0.0263158   0.3181818   0.3888889), wk =   0.0085061
        k(   20) = (   0.0263158   0.3181818  -0.5000000), wk =   0.0042531
        k(   21) = (   0.0263158   0.4090909   0.0555556), wk =   0.0085061
        k(   22) = (   0.0263158   0.4090909   0.1666667), wk =   0.0085061
        k(   23) = (   0.0263158   0.4090909   0.2777778), wk =   0.0085061
        k(   24) = (   0.0263158   0.4090909   0.3888889), wk =   0.0085061
        k(   25) = (   0.0263158   0.4090909  -0.5000000), wk =   0.0042531
        k(   26) = (   0.0263158  -0.5000000   0.0555556), wk =   0.0042531
        k(   27) = (   0.0263158  -0.5000000   0.1666667), wk =   0.0042531
        k(   28) = (   0.0263158  -0.5000000   0.2777778), wk =   0.0042531
        k(   29) = (   0.0263158  -0.5000000   0.3888889), wk =   0.0042531
        k(   30) = (   0.0263158  -0.5000000  -0.5000000), wk =   0.0021265
        k(   31) = (   0.0789474   0.0454545   0.0555556), wk =   0.0085061
        k(   32) = (   0.0789474   0.0454545   0.1666667), wk =   0.0085061
        k(   33) = (   0.0789474   0.0454545   0.2777778), wk =   0.0085061
        k(   34) = (   0.0789474   0.0454545   0.3888889), wk =   0.0085061
        k(   35) = (   0.0789474   0.0454545  -0.5000000), wk =   0.0042531
        k(   36) = (   0.0789474   0.1363636   0.0555556), wk =   0.0085061
        k(   37) = (   0.0789474   0.1363636   0.1666667), wk =   0.0085061
        k(   38) = (   0.0789474   0.1363636   0.2777778), wk =   0.0085061
        k(   39) = (   0.0789474   0.1363636   0.3888889), wk =   0.0085061
        k(   40) = (   0.0789474   0.1363636  -0.5000000), wk =   0.0042531
        k(   41) = (   0.0789474   0.2272727   0.0555556), wk =   0.0085061
        k(   42) = (   0.0789474   0.2272727   0.1666667), wk =   0.0085061
        k(   43) = (   0.0789474   0.2272727   0.2777778), wk =   0.0085061
        k(   44) = (   0.0789474   0.2272727   0.3888889), wk =   0.0085061
        k(   45) = (   0.0789474   0.2272727  -0.5000000), wk =   0.0042531
        k(   46) = (   0.0789474   0.3181818   0.0555556), wk =   0.0085061
        k(   47) = (   0.0789474   0.3181818   0.1666667), wk =   0.0085061
        k(   48) = (   0.0789474   0.3181818   0.2777778), wk =   0.0085061
        k(   49) = (   0.0789474   0.3181818   0.3888889), wk =   0.0085061
        k(   50) = (   0.0789474   0.3181818  -0.5000000), wk =   0.0042531
        k(   51) = (   0.0789474   0.4090909   0.0555556), wk =   0.0085061
        k(   52) = (   0.0789474   0.4090909   0.1666667), wk =   0.0085061
        k(   53) = (   0.0789474   0.4090909   0.2777778), wk =   0.0085061
        k(   54) = (   0.0789474   0.4090909   0.3888889), wk =   0.0085061
        k(   55) = (   0.0789474   0.4090909  -0.5000000), wk =   0.0042531
        k(   56) = (   0.0789474  -0.5000000   0.0555556), wk =   0.0042531
        k(   57) = (   0.0789474  -0.5000000   0.1666667), wk =   0.0042531
        k(   58) = (   0.0789474  -0.5000000   0.2777778), wk =   0.0042531
        k(   59) = (   0.0789474  -0.5000000   0.3888889), wk =   0.0042531
        k(   60) = (   0.0789474  -0.5000000  -0.5000000), wk =   0.0021265
        k(   61) = (   0.1315789   0.0454545   0.0555556), wk =   0.0085061
        k(   62) = (   0.1315789   0.0454545   0.1666667), wk =   0.0085061
        k(   63) = (   0.1315789   0.0454545   0.2777778), wk =   0.0085061
        k(   64) = (   0.1315789   0.0454545   0.3888889), wk =   0.0085061
        k(   65) = (   0.1315789   0.0454545  -0.5000000), wk =   0.0042531
        k(   66) = (   0.1315789   0.1363636   0.0555556), wk =   0.0085061
        k(   67) = (   0.1315789   0.1363636   0.1666667), wk =   0.0085061
        k(   68) = (   0.1315789   0.1363636   0.2777778), wk =   0.0085061
        k(   69) = (   0.1315789   0.1363636   0.3888889), wk =   0.0085061
        k(   70) = (   0.1315789   0.1363636  -0.5000000), wk =   0.0042531
        k(   71) = (   0.1315789   0.2272727   0.0555556), wk =   0.0085061
        k(   72) = (   0.1315789   0.2272727   0.1666667), wk =   0.0085061
        k(   73) = (   0.1315789   0.2272727   0.2777778), wk =   0.0085061
        k(   74) = (   0.1315789   0.2272727   0.3888889), wk =   0.0085061
        k(   75) = (   0.1315789   0.2272727  -0.5000000), wk =   0.0042531
        k(   76) = (   0.1315789   0.3181818   0.0555556), wk =   0.0085061
        k(   77) = (   0.1315789   0.3181818   0.1666667), wk =   0.0085061
        k(   78) = (   0.1315789   0.3181818   0.2777778), wk =   0.0085061
        k(   79) = (   0.1315789   0.3181818   0.3888889), wk =   0.0085061
        k(   80) = (   0.1315789   0.3181818  -0.5000000), wk =   0.0042531
        k(   81) = (   0.1315789   0.4090909   0.0555556), wk =   0.0085061
        k(   82) = (   0.1315789   0.4090909   0.1666667), wk =   0.0085061
        k(   83) = (   0.1315789   0.4090909   0.2777778), wk =   0.0085061
        k(   84) = (   0.1315789   0.4090909   0.3888889), wk =   0.0085061
        k(   85) = (   0.1315789   0.4090909  -0.5000000), wk =   0.0042531
        k(   86) = (   0.1315789  -0.5000000   0.0555556), wk =   0.0042531
        k(   87) = (   0.1315789  -0.5000000   0.1666667), wk =   0.0042531
        k(   88) = (   0.1315789  -0.5000000   0.2777778), wk =   0.0042531
        k(   89) = (   0.1315789  -0.5000000   0.3888889), wk =   0.0042531
        k(   90) = (   0.1315789  -0.5000000  -0.5000000), wk =   0.0021265
        k(   91) = (   0.1842105   0.0454545   0.0555556), wk =   0.0085061
        k(   92) = (   0.1842105   0.0454545   0.1666667), wk =   0.0085061
        k(   93) = (   0.1842105   0.0454545   0.2777778), wk =   0.0085061
        k(   94) = (   0.1842105   0.0454545   0.3888889), wk =   0.0085061
        k(   95) = (   0.1842105   0.0454545  -0.5000000), wk =   0.0042531
        k(   96) = (   0.1842105   0.1363636   0.0555556), wk =   0.0085061
        k(   97) = (   0.1842105   0.1363636   0.1666667), wk =   0.0085061
        k(   98) = (   0.1842105   0.1363636   0.2777778), wk =   0.0085061
        k(   99) = (   0.1842105   0.1363636   0.3888889), wk =   0.0085061
        k(  100) = (   0.1842105   0.1363636  -0.5000000), wk =   0.0042531
        k(  101) = (   0.1842105   0.2272727   0.0555556), wk =   0.0085061
        k(  102) = (   0.1842105   0.2272727   0.1666667), wk =   0.0085061
        k(  103) = (   0.1842105   0.2272727   0.2777778), wk =   0.0085061
        k(  104) = (   0.1842105   0.2272727   0.3888889), wk =   0.0085061
        k(  105) = (   0.1842105   0.2272727  -0.5000000), wk =   0.0042531
        k(  106) = (   0.1842105   0.3181818   0.0555556), wk =   0.0085061
        k(  107) = (   0.1842105   0.3181818   0.1666667), wk =   0.0085061
        k(  108) = (   0.1842105   0.3181818   0.2777778), wk =   0.0085061
        k(  109) = (   0.1842105   0.3181818   0.3888889), wk =   0.0085061
        k(  110) = (   0.1842105   0.3181818  -0.5000000), wk =   0.0042531
        k(  111) = (   0.1842105   0.4090909   0.0555556), wk =   0.0085061
        k(  112) = (   0.1842105   0.4090909   0.1666667), wk =   0.0085061
        k(  113) = (   0.1842105   0.4090909   0.2777778), wk =   0.0085061
        k(  114) = (   0.1842105   0.4090909   0.3888889), wk =   0.0085061
        k(  115) = (   0.1842105   0.4090909  -0.5000000), wk =   0.0042531
        k(  116) = (   0.1842105  -0.5000000   0.0555556), wk =   0.0042531
        k(  117) = (   0.1842105  -0.5000000   0.1666667), wk =   0.0042531
        k(  118) = (   0.1842105  -0.5000000   0.2777778), wk =   0.0042531
        k(  119) = (   0.1842105  -0.5000000   0.3888889), wk =   0.0042531
        k(  120) = (   0.1842105  -0.5000000  -0.5000000), wk =   0.0021265
        k(  121) = (   0.2368421   0.0454545   0.0555556), wk =   0.0085061
        k(  122) = (   0.2368421   0.0454545   0.1666667), wk =   0.0085061
        k(  123) = (   0.2368421   0.0454545   0.2777778), wk =   0.0085061
        k(  124) = (   0.2368421   0.0454545   0.3888889), wk =   0.0085061
        k(  125) = (   0.2368421   0.0454545  -0.5000000), wk =   0.0042531
        k(  126) = (   0.2368421   0.1363636   0.0555556), wk =   0.0085061
        k(  127) = (   0.2368421   0.1363636   0.1666667), wk =   0.0085061
        k(  128) = (   0.2368421   0.1363636   0.2777778), wk =   0.0085061
        k(  129) = (   0.2368421   0.1363636   0.3888889), wk =   0.0085061
        k(  130) = (   0.2368421   0.1363636  -0.5000000), wk =   0.0042531
        k(  131) = (   0.2368421   0.2272727   0.0555556), wk =   0.0085061
        k(  132) = (   0.2368421   0.2272727   0.1666667), wk =   0.0085061
        k(  133) = (   0.2368421   0.2272727   0.2777778), wk =   0.0085061
        k(  134) = (   0.2368421   0.2272727   0.3888889), wk =   0.0085061
        k(  135) = (   0.2368421   0.2272727  -0.5000000), wk =   0.0042531
        k(  136) = (   0.2368421   0.3181818   0.0555556), wk =   0.0085061
        k(  137) = (   0.2368421   0.3181818   0.1666667), wk =   0.0085061
        k(  138) = (   0.2368421   0.3181818   0.2777778), wk =   0.0085061
        k(  139) = (   0.2368421   0.3181818   0.3888889), wk =   0.0085061
        k(  140) = (   0.2368421   0.3181818  -0.5000000), wk =   0.0042531
        k(  141) = (   0.2368421   0.4090909   0.0555556), wk =   0.0085061
        k(  142) = (   0.2368421   0.4090909   0.1666667), wk =   0.0085061
        k(  143) = (   0.2368421   0.4090909   0.2777778), wk =   0.0085061
        k(  144) = (   0.2368421   0.4090909   0.3888889), wk =   0.0085061
        k(  145) = (   0.2368421   0.4090909  -0.5000000), wk =   0.0042531
        k(  146) = (   0.2368421  -0.5000000   0.0555556), wk =   0.0042531
        k(  147) = (   0.2368421  -0.5000000   0.1666667), wk =   0.0042531
        k(  148) = (   0.2368421  -0.5000000   0.2777778), wk =   0.0042531
        k(  149) = (   0.2368421  -0.5000000   0.3888889), wk =   0.0042531
        k(  150) = (   0.2368421  -0.5000000  -0.5000000), wk =   0.0021265
        k(  151) = (   0.2894737   0.0454545   0.0555556), wk =   0.0085061
        k(  152) = (   0.2894737   0.0454545   0.1666667), wk =   0.0085061
        k(  153) = (   0.2894737   0.0454545   0.2777778), wk =   0.0085061
        k(  154) = (   0.2894737   0.0454545   0.3888889), wk =   0.0085061
        k(  155) = (   0.2894737   0.0454545  -0.5000000), wk =   0.0042531
        k(  156) = (   0.2894737   0.1363636   0.0555556), wk =   0.0085061
        k(  157) = (   0.2894737   0.1363636   0.1666667), wk =   0.0085061
        k(  158) = (   0.2894737   0.1363636   0.2777778), wk =   0.0085061
        k(  159) = (   0.2894737   0.1363636   0.3888889), wk =   0.0085061
        k(  160) = (   0.2894737   0.1363636  -0.5000000), wk =   0.0042531
        k(  161) = (   0.2894737   0.2272727   0.0555556), wk =   0.0085061
        k(  162) = (   0.2894737   0.2272727   0.1666667), wk =   0.0085061
        k(  163) = (   0.2894737   0.2272727   0.2777778), wk =   0.0085061
        k(  164) = (   0.2894737   0.2272727   0.3888889), wk =   0.0085061
        k(  165) = (   0.2894737   0.2272727  -0.5000000), wk =   0.0042531
        k(  166) = (   0.2894737   0.3181818   0.0555556), wk =   0.0085061
        k(  167) = (   0.2894737   0.3181818   0.1666667), wk =   0.0085061
        k(  168) = (   0.2894737   0.3181818   0.2777778), wk =   0.0085061
        k(  169) = (   0.2894737   0.3181818   0.3888889), wk =   0.0085061
        k(  170) = (   0.2894737   0.3181818  -0.5000000), wk =   0.0042531
        k(  171) = (   0.2894737   0.4090909   0.0555556), wk =   0.0085061
        k(  172) = (   0.2894737   0.4090909   0.1666667), wk =   0.0085061
        k(  173) = (   0.2894737   0.4090909   0.2777778), wk =   0.0085061
        k(  174) = (   0.2894737   0.4090909   0.3888889), wk =   0.0085061
        k(  175) = (   0.2894737   0.4090909  -0.5000000), wk =   0.0042531
        k(  176) = (   0.2894737  -0.5000000   0.0555556), wk =   0.0042531
        k(  177) = (   0.2894737  -0.5000000   0.1666667), wk =   0.0042531
        k(  178) = (   0.2894737  -0.5000000   0.2777778), wk =   0.0042531
        k(  179) = (   0.2894737  -0.5000000   0.3888889), wk =   0.0042531
        k(  180) = (   0.2894737  -0.5000000  -0.5000000), wk =   0.0021265
        k(  181) = (   0.3421053   0.0454545   0.0555556), wk =   0.0085061
        k(  182) = (   0.3421053   0.0454545   0.1666667), wk =   0.0085061
        k(  183) = (   0.3421053   0.0454545   0.2777778), wk =   0.0085061
        k(  184) = (   0.3421053   0.0454545   0.3888889), wk =   0.0085061
        k(  185) = (   0.3421053   0.0454545  -0.5000000), wk =   0.0042531
        k(  186) = (   0.3421053   0.1363636   0.0555556), wk =   0.0085061
        k(  187) = (   0.3421053   0.1363636   0.1666667), wk =   0.0085061
        k(  188) = (   0.3421053   0.1363636   0.2777778), wk =   0.0085061
        k(  189) = (   0.3421053   0.1363636   0.3888889), wk =   0.0085061
        k(  190) = (   0.3421053   0.1363636  -0.5000000), wk =   0.0042531
        k(  191) = (   0.3421053   0.2272727   0.0555556), wk =   0.0085061
        k(  192) = (   0.3421053   0.2272727   0.1666667), wk =   0.0085061
        k(  193) = (   0.3421053   0.2272727   0.2777778), wk =   0.0085061
        k(  194) = (   0.3421053   0.2272727   0.3888889), wk =   0.0085061
        k(  195) = (   0.3421053   0.2272727  -0.5000000), wk =   0.0042531
        k(  196) = (   0.3421053   0.3181818   0.0555556), wk =   0.0085061
        k(  197) = (   0.3421053   0.3181818   0.1666667), wk =   0.0085061
        k(  198) = (   0.3421053   0.3181818   0.2777778), wk =   0.0085061
        k(  199) = (   0.3421053   0.3181818   0.3888889), wk =   0.0085061
        k(  200) = (   0.3421053   0.3181818  -0.5000000), wk =   0.0042531
        k(  201) = (   0.3421053   0.4090909   0.0555556), wk =   0.0085061
        k(  202) = (   0.3421053   0.4090909   0.1666667), wk =   0.0085061
        k(  203) = (   0.3421053   0.4090909   0.2777778), wk =   0.0085061
        k(  204) = (   0.3421053   0.4090909   0.3888889), wk =   0.0085061
        k(  205) = (   0.3421053   0.4090909  -0.5000000), wk =   0.0042531
        k(  206) = (   0.3421053  -0.5000000   0.0555556), wk =   0.0042531
        k(  207) = (   0.3421053  -0.5000000   0.1666667), wk =   0.0042531
        k(  208) = (   0.3421053  -0.5000000   0.2777778), wk =   0.0042531
        k(  209) = (   0.3421053  -0.5000000   0.3888889), wk =   0.0042531
        k(  210) = (   0.3421053  -0.5000000  -0.5000000), wk =   0.0021265
        k(  211) = (   0.3947368   0.0454545   0.0555556), wk =   0.0085061
        k(  212) = (   0.3947368   0.0454545   0.1666667), wk =   0.0085061
        k(  213) = (   0.3947368   0.0454545   0.2777778), wk =   0.0085061
        k(  214) = (   0.3947368   0.0454545   0.3888889), wk =   0.0085061
        k(  215) = (   0.3947368   0.0454545  -0.5000000), wk =   0.0042531
        k(  216) = (   0.3947368   0.1363636   0.0555556), wk =   0.0085061
        k(  217) = (   0.3947368   0.1363636   0.1666667), wk =   0.0085061
        k(  218) = (   0.3947368   0.1363636   0.2777778), wk =   0.0085061
        k(  219) = (   0.3947368   0.1363636   0.3888889), wk =   0.0085061
        k(  220) = (   0.3947368   0.1363636  -0.5000000), wk =   0.0042531
        k(  221) = (   0.3947368   0.2272727   0.0555556), wk =   0.0085061
        k(  222) = (   0.3947368   0.2272727   0.1666667), wk =   0.0085061
        k(  223) = (   0.3947368   0.2272727   0.2777778), wk =   0.0085061
        k(  224) = (   0.3947368   0.2272727   0.3888889), wk =   0.0085061
        k(  225) = (   0.3947368   0.2272727  -0.5000000), wk =   0.0042531
        k(  226) = (   0.3947368   0.3181818   0.0555556), wk =   0.0085061
        k(  227) = (   0.3947368   0.3181818   0.1666667), wk =   0.0085061
        k(  228) = (   0.3947368   0.3181818   0.2777778), wk =   0.0085061
        k(  229) = (   0.3947368   0.3181818   0.3888889), wk =   0.0085061
        k(  230) = (   0.3947368   0.3181818  -0.5000000), wk =   0.0042531
        k(  231) = (   0.3947368   0.4090909   0.0555556), wk =   0.0085061
        k(  232) = (   0.3947368   0.4090909   0.1666667), wk =   0.0085061
        k(  233) = (   0.3947368   0.4090909   0.2777778), wk =   0.0085061
        k(  234) = (   0.3947368   0.4090909   0.3888889), wk =   0.0085061
        k(  235) = (   0.3947368   0.4090909  -0.5000000), wk =   0.0042531
        k(  236) = (   0.3947368  -0.5000000   0.0555556), wk =   0.0042531
        k(  237) = (   0.3947368  -0.5000000   0.1666667), wk =   0.0042531
        k(  238) = (   0.3947368  -0.5000000   0.2777778), wk =   0.0042531
        k(  239) = (   0.3947368  -0.5000000   0.3888889), wk =   0.0042531
        k(  240) = (   0.3947368  -0.5000000  -0.5000000), wk =   0.0021265
        k(  241) = (   0.4473684   0.0454545   0.0555556), wk =   0.0085061
        k(  242) = (   0.4473684   0.0454545   0.1666667), wk =   0.0085061
        k(  243) = (   0.4473684   0.0454545   0.2777778), wk =   0.0085061
        k(  244) = (   0.4473684   0.0454545   0.3888889), wk =   0.0085061
        k(  245) = (   0.4473684   0.0454545  -0.5000000), wk =   0.0042531
        k(  246) = (   0.4473684   0.1363636   0.0555556), wk =   0.0085061
        k(  247) = (   0.4473684   0.1363636   0.1666667), wk =   0.0085061
        k(  248) = (   0.4473684   0.1363636   0.2777778), wk =   0.0085061
        k(  249) = (   0.4473684   0.1363636   0.3888889), wk =   0.0085061
        k(  250) = (   0.4473684   0.1363636  -0.5000000), wk =   0.0042531
        k(  251) = (   0.4473684   0.2272727   0.0555556), wk =   0.0085061
        k(  252) = (   0.4473684   0.2272727   0.1666667), wk =   0.0085061
        k(  253) = (   0.4473684   0.2272727   0.2777778), wk =   0.0085061
        k(  254) = (   0.4473684   0.2272727   0.3888889), wk =   0.0085061
        k(  255) = (   0.4473684   0.2272727  -0.5000000), wk =   0.0042531
        k(  256) = (   0.4473684   0.3181818   0.0555556), wk =   0.0085061
        k(  257) = (   0.4473684   0.3181818   0.1666667), wk =   0.0085061
        k(  258) = (   0.4473684   0.3181818   0.2777778), wk =   0.0085061
        k(  259) = (   0.4473684   0.3181818   0.3888889), wk =   0.0085061
        k(  260) = (   0.4473684   0.3181818  -0.5000000), wk =   0.0042531
        k(  261) = (   0.4473684   0.4090909   0.0555556), wk =   0.0085061
        k(  262) = (   0.4473684   0.4090909   0.1666667), wk =   0.0085061
        k(  263) = (   0.4473684   0.4090909   0.2777778), wk =   0.0085061
        k(  264) = (   0.4473684   0.4090909   0.3888889), wk =   0.0085061
        k(  265) = (   0.4473684   0.4090909  -0.5000000), wk =   0.0042531
        k(  266) = (   0.4473684  -0.5000000   0.0555556), wk =   0.0042531
        k(  267) = (   0.4473684  -0.5000000   0.1666667), wk =   0.0042531
        k(  268) = (   0.4473684  -0.5000000   0.2777778), wk =   0.0042531
        k(  269) = (   0.4473684  -0.5000000   0.3888889), wk =   0.0042531
        k(  270) = (   0.4473684  -0.5000000  -0.5000000), wk =   0.0021265
        k(  271) = (  -0.5000000   0.0454545   0.0555556), wk =   0.0042531
        k(  272) = (  -0.5000000   0.0454545   0.1666667), wk =   0.0042531
        k(  273) = (  -0.5000000   0.0454545   0.2777778), wk =   0.0042531
        k(  274) = (  -0.5000000   0.0454545   0.3888889), wk =   0.0042531
        k(  275) = (  -0.5000000   0.0454545  -0.5000000), wk =   0.0021265
        k(  276) = (  -0.5000000   0.1363636   0.0555556), wk =   0.0042531
        k(  277) = (  -0.5000000   0.1363636   0.1666667), wk =   0.0042531
        k(  278) = (  -0.5000000   0.1363636   0.2777778), wk =   0.0042531
        k(  279) = (  -0.5000000   0.1363636   0.3888889), wk =   0.0042531
        k(  280) = (  -0.5000000   0.1363636  -0.5000000), wk =   0.0021265
        k(  281) = (  -0.5000000   0.2272727   0.0555556), wk =   0.0042531
        k(  282) = (  -0.5000000   0.2272727   0.1666667), wk =   0.0042531
        k(  283) = (  -0.5000000   0.2272727   0.2777778), wk =   0.0042531
        k(  284) = (  -0.5000000   0.2272727   0.3888889), wk =   0.0042531
        k(  285) = (  -0.5000000   0.2272727  -0.5000000), wk =   0.0021265
        k(  286) = (  -0.5000000   0.3181818   0.0555556), wk =   0.0042531
        k(  287) = (  -0.5000000   0.3181818   0.1666667), wk =   0.0042531
        k(  288) = (  -0.5000000   0.3181818   0.2777778), wk =   0.0042531
        k(  289) = (  -0.5000000   0.3181818   0.3888889), wk =   0.0042531
        k(  290) = (  -0.5000000   0.3181818  -0.5000000), wk =   0.0021265
        k(  291) = (  -0.5000000   0.4090909   0.0555556), wk =   0.0042531
        k(  292) = (  -0.5000000   0.4090909   0.1666667), wk =   0.0042531
        k(  293) = (  -0.5000000   0.4090909   0.2777778), wk =   0.0042531
        k(  294) = (  -0.5000000   0.4090909   0.3888889), wk =   0.0042531
        k(  295) = (  -0.5000000   0.4090909  -0.5000000), wk =   0.0021265
        k(  296) = (  -0.5000000  -0.5000000   0.0555556), wk =   0.0021265
        k(  297) = (  -0.5000000  -0.5000000   0.1666667), wk =   0.0021265
        k(  298) = (  -0.5000000  -0.5000000   0.2777778), wk =   0.0021265
        k(  299) = (  -0.5000000  -0.5000000   0.3888889), wk =   0.0021265
        k(  300) = (  -0.5000000  -0.5000000  -0.5000000), wk =   0.0010633

     Dense  grid:   245021 G-vectors     FFT dimensions: (  54,  90, 108)

     Smooth grid:    47095 G-vectors     FFT dimensions: (  30,  54,  64)

     Dynamical RAM for                 wfc:       1.39 MB

     Dynamical RAM for     wfc (w. buffer):       1.39 MB

     Dynamical RAM for           str. fact:       3.74 MB

     Dynamical RAM for           local pot:       0.00 MB

     Dynamical RAM for          nlocal pot:       3.06 MB

     Dynamical RAM for                qrad:       4.31 MB

     Dynamical RAM for          rho,v,vnew:      11.61 MB

     Dynamical RAM for           G-vectors:       7.19 MB

     Dynamical RAM for          h,s,v(r/c):       0.18 MB

     Dynamical RAM for          <psi|beta>:       0.03 MB

     Dynamical RAM for                 psi:       2.79 MB

     Dynamical RAM for                hpsi:       2.79 MB

     Dynamical RAM for                spsi:       2.79 MB

     Dynamical RAM for      wfcinit/wfcrot:       3.27 MB

     Dynamical RAM for           addusdens:     355.18 MB

     Estimated static dynamical RAM per process >      46.92 MB

     Estimated max dynamical RAM per process >     402.10 MB

     Estimated total dynamical RAM >     804.19 MB

     The potential is recalculated from file :
     ../tmp/FeAs2.save/charge-density

     Starting wfcs are   36 randomized atomic wfcs
     Checking if some PAW data can be deallocated... 
       PAW data deallocated on    1 nodes for type:  1

     Band Structure Calculation
     Davidson diagonalization with overlap

     Computing kpt #:     1  of   300
     total cpu time spent up to now is       14.9 secs

     Computing kpt #:     2  of   300
     total cpu time spent up to now is       18.1 secs

     Computing kpt #:     3  of   300
     total cpu time spent up to now is       21.6 secs

     Computing kpt #:     4  of   300
     total cpu time spent up to now is       25.4 secs

     Computing kpt #:     5  of   300
     total cpu time spent up to now is       28.8 secs

     Computing kpt #:     6  of   300
     total cpu time spent up to now is       32.5 secs

     Computing kpt #:     7  of   300
     total cpu time spent up to now is       35.7 secs

     Computing kpt #:     8  of   300
     total cpu time spent up to now is       39.0 secs

     Computing kpt #:     9  of   300
     total cpu time spent up to now is       42.4 secs

     Computing kpt #:    10  of   300
     total cpu time spent up to now is       45.6 secs

     Computing kpt #:    11  of   300
     total cpu time spent up to now is       49.6 secs

     Computing kpt #:    12  of   300
     total cpu time spent up to now is       53.1 secs

     Computing kpt #:    13  of   300
     total cpu time spent up to now is       56.6 secs

     Computing kpt #:    14  of   300
     total cpu time spent up to now is       59.9 secs

     Computing kpt #:    15  of   300
     total cpu time spent up to now is       63.2 secs

     Computing kpt #:    16  of   300
     total cpu time spent up to now is       67.1 secs

     Computing kpt #:    17  of   300
     total cpu time spent up to now is       70.4 secs

     Computing kpt #:    18  of   300
     total cpu time spent up to now is       73.8 secs

     Computing kpt #:    19  of   300
     total cpu time spent up to now is       77.7 secs

     Computing kpt #:    20  of   300
     total cpu time spent up to now is       81.6 secs

     Computing kpt #:    21  of   300
     total cpu time spent up to now is       85.8 secs

     Computing kpt #:    22  of   300
     total cpu time spent up to now is       89.5 secs

     Computing kpt #:    23  of   300
     total cpu time spent up to now is       93.8 secs

     Computing kpt #:    24  of   300
     total cpu time spent up to now is       97.8 secs

     Computing kpt #:    25  of   300
     total cpu time spent up to now is      101.5 secs

     Computing kpt #:    26  of   300
     total cpu time spent up to now is      105.6 secs

     Computing kpt #:    27  of   300
     total cpu time spent up to now is      110.0 secs

     Computing kpt #:    28  of   300
     total cpu time spent up to now is      114.0 secs

     Computing kpt #:    29  of   300
     total cpu time spent up to now is      117.8 secs

     Computing kpt #:    30  of   300
     total cpu time spent up to now is      121.5 secs

     Computing kpt #:    31  of   300
     total cpu time spent up to now is      124.9 secs

     Computing kpt #:    32  of   300
     total cpu time spent up to now is      128.6 secs

     Computing kpt #:    33  of   300
     total cpu time spent up to now is      132.0 secs

     Computing kpt #:    34  of   300
     total cpu time spent up to now is      135.5 secs

     Computing kpt #:    35  of   300
     total cpu time spent up to now is      138.8 secs

     Computing kpt #:    36  of   300
     total cpu time spent up to now is      142.8 secs

     Computing kpt #:    37  of   300
     total cpu time spent up to now is      146.5 secs

     Computing kpt #:    38  of   300
     total cpu time spent up to now is      149.8 secs

     Computing kpt #:    39  of   300
     total cpu time spent up to now is      153.2 secs

     Computing kpt #:    40  of   300
     total cpu time spent up to now is      157.2 secs

     Computing kpt #:    41  of   300
     total cpu time spent up to now is      160.9 secs

     Computing kpt #:    42  of   300
     total cpu time spent up to now is      164.4 secs

     Computing kpt #:    43  of   300
     total cpu time spent up to now is      167.9 secs

     Computing kpt #:    44  of   300
     total cpu time spent up to now is      171.8 secs

     Computing kpt #:    45  of   300
     total cpu time spent up to now is      175.8 secs

     Computing kpt #:    46  of   300
     total cpu time spent up to now is      179.8 secs

     Computing kpt #:    47  of   300
     total cpu time spent up to now is      183.9 secs

     Computing kpt #:    48  of   300
     total cpu time spent up to now is      188.7 secs

     Computing kpt #:    49  of   300
     total cpu time spent up to now is      192.4 secs

     Computing kpt #:    50  of   300
     total cpu time spent up to now is      195.9 secs

     Computing kpt #:    51  of   300
     total cpu time spent up to now is      199.9 secs

     Computing kpt #:    52  of   300
     total cpu time spent up to now is      204.4 secs

     Computing kpt #:    53  of   300
     total cpu time spent up to now is      208.3 secs

     Computing kpt #:    54  of   300
     total cpu time spent up to now is      212.2 secs

     Computing kpt #:    55  of   300
     total cpu time spent up to now is      215.9 secs

     Computing kpt #:    56  of   300
     total cpu time spent up to now is      220.3 secs

     Computing kpt #:    57  of   300
     total cpu time spent up to now is      224.4 secs

     Computing kpt #:    58  of   300
     total cpu time spent up to now is      227.9 secs

     Computing kpt #:    59  of   300
     total cpu time spent up to now is      231.6 secs

     Computing kpt #:    60  of   300
     total cpu time spent up to now is      235.2 secs

     Computing kpt #:    61  of   300
     total cpu time spent up to now is      239.5 secs

     Computing kpt #:    62  of   300
     total cpu time spent up to now is      243.7 secs

     Computing kpt #:    63  of   300
     total cpu time spent up to now is      247.5 secs

     Computing kpt #:    64  of   300
     total cpu time spent up to now is      251.8 secs

     Computing kpt #:    65  of   300
     total cpu time spent up to now is      256.0 secs

     Computing kpt #:    66  of   300
     total cpu time spent up to now is      259.9 secs

     Computing kpt #:    67  of   300
     total cpu time spent up to now is      264.3 secs

     Computing kpt #:    68  of   300
     total cpu time spent up to now is      268.8 secs

     Computing kpt #:    69  of   300
     total cpu time spent up to now is      273.0 secs

     Computing kpt #:    70  of   300
     total cpu time spent up to now is      277.2 secs

     Computing kpt #:    71  of   300
     total cpu time spent up to now is      281.4 secs

     Computing kpt #:    72  of   300
     total cpu time spent up to now is      285.7 secs

     Computing kpt #:    73  of   300
     total cpu time spent up to now is      290.3 secs

     Computing kpt #:    74  of   300
     total cpu time spent up to now is      294.9 secs

     Computing kpt #:    75  of   300
     total cpu time spent up to now is      298.4 secs

     Computing kpt #:    76  of   300
     total cpu time spent up to now is      302.5 secs

     Computing kpt #:    77  of   300
     total cpu time spent up to now is      307.0 secs

     Computing kpt #:    78  of   300
     total cpu time spent up to now is      311.5 secs

     Computing kpt #:    79  of   300
     total cpu time spent up to now is      316.5 secs

     Computing kpt #:    80  of   300
     total cpu time spent up to now is      320.2 secs

     Computing kpt #:    81  of   300
     total cpu time spent up to now is      324.4 secs

     Computing kpt #:    82  of   300
     total cpu time spent up to now is      329.0 secs

     Computing kpt #:    83  of   300
     total cpu time spent up to now is      333.0 secs

     Computing kpt #:    84  of   300
     total cpu time spent up to now is      337.0 secs

     Computing kpt #:    85  of   300
     total cpu time spent up to now is      340.5 secs

     Computing kpt #:    86  of   300
     total cpu time spent up to now is      344.9 secs

     Computing kpt #:    87  of   300
     total cpu time spent up to now is      348.9 secs

     Computing kpt #:    88  of   300
     total cpu time spent up to now is      352.7 secs

     Computing kpt #:    89  of   300
     total cpu time spent up to now is      356.6 secs

     Computing kpt #:    90  of   300
     total cpu time spent up to now is      360.3 secs

     Computing kpt #:    91  of   300
     total cpu time spent up to now is      363.7 secs

     Computing kpt #:    92  of   300
     total cpu time spent up to now is      368.0 secs

     Computing kpt #:    93  of   300
     total cpu time spent up to now is      372.6 secs

     Computing kpt #:    94  of   300
     total cpu time spent up to now is      377.0 secs

     Computing kpt #:    95  of   300
     total cpu time spent up to now is      380.6 secs

     Computing kpt #:    96  of   300
     total cpu time spent up to now is      384.7 secs

     Computing kpt #:    97  of   300
     total cpu time spent up to now is      388.8 secs

     Computing kpt #:    98  of   300
     total cpu time spent up to now is      393.0 secs

     Computing kpt #:    99  of   300
     total cpu time spent up to now is      397.4 secs

     Computing kpt #:   100  of   300
     total cpu time spent up to now is      401.1 secs

     Computing kpt #:   101  of   300
     total cpu time spent up to now is      404.8 secs

     Computing kpt #:   102  of   300
     total cpu time spent up to now is      408.5 secs

     Computing kpt #:   103  of   300
     total cpu time spent up to now is      412.9 secs

     Computing kpt #:   104  of   300
     total cpu time spent up to now is      417.4 secs

     Computing kpt #:   105  of   300
     total cpu time spent up to now is      421.3 secs

     Computing kpt #:   106  of   300
     total cpu time spent up to now is      424.9 secs

     Computing kpt #:   107  of   300
     total cpu time spent up to now is      429.1 secs

     Computing kpt #:   108  of   300
     total cpu time spent up to now is      433.6 secs

     Computing kpt #:   109  of   300
     total cpu time spent up to now is      438.2 secs

     Computing kpt #:   110  of   300
     total cpu time spent up to now is      442.3 secs

     Computing kpt #:   111  of   300
     total cpu time spent up to now is      446.4 secs

     Computing kpt #:   112  of   300
     total cpu time spent up to now is      450.5 secs

     Computing kpt #:   113  of   300
     total cpu time spent up to now is      454.5 secs

     Computing kpt #:   114  of   300
     total cpu time spent up to now is      459.1 secs

     Computing kpt #:   115  of   300
     total cpu time spent up to now is      463.3 secs

     Computing kpt #:   116  of   300
     total cpu time spent up to now is      467.4 secs

     Computing kpt #:   117  of   300
     total cpu time spent up to now is      471.5 secs

     Computing kpt #:   118  of   300
     total cpu time spent up to now is      475.5 secs

     Computing kpt #:   119  of   300
     total cpu time spent up to now is      479.3 secs

     Computing kpt #:   120  of   300
     total cpu time spent up to now is      483.4 secs

     Computing kpt #:   121  of   300
     total cpu time spent up to now is      487.1 secs

     Computing kpt #:   122  of   300
     total cpu time spent up to now is      491.2 secs

     Computing kpt #:   123  of   300
     total cpu time spent up to now is      495.7 secs

     Computing kpt #:   124  of   300
     total cpu time spent up to now is      500.2 secs

     Computing kpt #:   125  of   300
     total cpu time spent up to now is      504.4 secs

     Computing kpt #:   126  of   300
     total cpu time spent up to now is      507.9 secs

     Computing kpt #:   127  of   300
     total cpu time spent up to now is      512.0 secs

     Computing kpt #:   128  of   300
     total cpu time spent up to now is      516.4 secs

     Computing kpt #:   129  of   300
     total cpu time spent up to now is      520.6 secs

     Computing kpt #:   130  of   300
     total cpu time spent up to now is      524.4 secs

     Computing kpt #:   131  of   300
     total cpu time spent up to now is      528.0 secs

     Computing kpt #:   132  of   300
     total cpu time spent up to now is      531.6 secs

     Computing kpt #:   133  of   300
     total cpu time spent up to now is      535.7 secs

     Computing kpt #:   134  of   300
     total cpu time spent up to now is      539.8 secs

     Computing kpt #:   135  of   300
     total cpu time spent up to now is      543.8 secs

     Computing kpt #:   136  of   300
     total cpu time spent up to now is      547.3 secs

     Computing kpt #:   137  of   300
     total cpu time spent up to now is      550.9 secs

     Computing kpt #:   138  of   300
     total cpu time spent up to now is      555.0 secs

     Computing kpt #:   139  of   300
     total cpu time spent up to now is      558.9 secs

     Computing kpt #:   140  of   300
     total cpu time spent up to now is      562.3 secs

     Computing kpt #:   141  of   300
     total cpu time spent up to now is      565.9 secs

     Computing kpt #:   142  of   300
     total cpu time spent up to now is      569.4 secs

     Computing kpt #:   143  of   300
     total cpu time spent up to now is      573.7 secs

     Computing kpt #:   144  of   300
     total cpu time spent up to now is      578.1 secs

     Computing kpt #:   145  of   300
     total cpu time spent up to now is      582.3 secs

     Computing kpt #:   146  of   300
     total cpu time spent up to now is      585.8 secs

     Computing kpt #:   147  of   300
     total cpu time spent up to now is      589.6 secs

     Computing kpt #:   148  of   300
     total cpu time spent up to now is      593.4 secs

     Computing kpt #:   149  of   300
     total cpu time spent up to now is      597.6 secs

     Computing kpt #:   150  of   300
     total cpu time spent up to now is      601.2 secs

     Computing kpt #:   151  of   300
     total cpu time spent up to now is      604.9 secs

     Computing kpt #:   152  of   300
     total cpu time spent up to now is      609.1 secs

     Computing kpt #:   153  of   300
     total cpu time spent up to now is      613.4 secs

     Computing kpt #:   154  of   300
     total cpu time spent up to now is      617.8 secs

     Computing kpt #:   155  of   300
     total cpu time spent up to now is      621.8 secs

     Computing kpt #:   156  of   300
     total cpu time spent up to now is      625.5 secs

     Computing kpt #:   157  of   300
     total cpu time spent up to now is      629.1 secs

     Computing kpt #:   158  of   300
     total cpu time spent up to now is      632.7 secs

     Computing kpt #:   159  of   300
     total cpu time spent up to now is      636.9 secs

     Computing kpt #:   160  of   300
     total cpu time spent up to now is      640.5 secs

     Computing kpt #:   161  of   300
     total cpu time spent up to now is      643.9 secs

     Computing kpt #:   162  of   300
     total cpu time spent up to now is      647.3 secs

     Computing kpt #:   163  of   300
     total cpu time spent up to now is      651.1 secs

     Computing kpt #:   164  of   300
     total cpu time spent up to now is      655.2 secs

     Computing kpt #:   165  of   300
     total cpu time spent up to now is      659.2 secs

     Computing kpt #:   166  of   300
     total cpu time spent up to now is      662.6 secs

     Computing kpt #:   167  of   300
     total cpu time spent up to now is      665.9 secs

     Computing kpt #:   168  of   300
     total cpu time spent up to now is      669.6 secs

     Computing kpt #:   169  of   300
     total cpu time spent up to now is      673.8 secs

     Computing kpt #:   170  of   300
     total cpu time spent up to now is      677.7 secs

     Computing kpt #:   171  of   300
     total cpu time spent up to now is      681.6 secs

     Computing kpt #:   172  of   300
     total cpu time spent up to now is      685.3 secs

     Computing kpt #:   173  of   300
     total cpu time spent up to now is      689.5 secs

     Computing kpt #:   174  of   300
     total cpu time spent up to now is      693.8 secs

     Computing kpt #:   175  of   300
     total cpu time spent up to now is      697.9 secs

     Computing kpt #:   176  of   300
     total cpu time spent up to now is      701.2 secs

     Computing kpt #:   177  of   300
     total cpu time spent up to now is      704.6 secs

     Computing kpt #:   178  of   300
     total cpu time spent up to now is      708.6 secs

     Computing kpt #:   179  of   300
     total cpu time spent up to now is      712.7 secs

     Computing kpt #:   180  of   300
     total cpu time spent up to now is      716.6 secs

     Computing kpt #:   181  of   300
     total cpu time spent up to now is      720.1 secs

     Computing kpt #:   182  of   300
     total cpu time spent up to now is      724.2 secs

     Computing kpt #:   183  of   300
     total cpu time spent up to now is      728.6 secs

     Computing kpt #:   184  of   300
     total cpu time spent up to now is      732.8 secs

     Computing kpt #:   185  of   300
     total cpu time spent up to now is      736.4 secs

     Computing kpt #:   186  of   300
     total cpu time spent up to now is      739.9 secs

     Computing kpt #:   187  of   300
     total cpu time spent up to now is      743.5 secs

     Computing kpt #:   188  of   300
     total cpu time spent up to now is      747.4 secs

     Computing kpt #:   189  of   300
     total cpu time spent up to now is      751.4 secs

     Computing kpt #:   190  of   300
     total cpu time spent up to now is      754.9 secs

     Computing kpt #:   191  of   300
     total cpu time spent up to now is      758.5 secs

     Computing kpt #:   192  of   300
     total cpu time spent up to now is      762.0 secs

     Computing kpt #:   193  of   300
     total cpu time spent up to now is      765.8 secs

     Computing kpt #:   194  of   300
     total cpu time spent up to now is      770.0 secs

     Computing kpt #:   195  of   300
     total cpu time spent up to now is      773.9 secs

     Computing kpt #:   196  of   300
     total cpu time spent up to now is      777.3 secs

     Computing kpt #:   197  of   300
     total cpu time spent up to now is      780.8 secs

     Computing kpt #:   198  of   300
     total cpu time spent up to now is      784.4 secs

     Computing kpt #:   199  of   300
     total cpu time spent up to now is      788.5 secs

     Computing kpt #:   200  of   300
     total cpu time spent up to now is      792.5 secs

     Computing kpt #:   201  of   300
     total cpu time spent up to now is      795.9 secs

     Computing kpt #:   202  of   300
     total cpu time spent up to now is      799.4 secs

     Computing kpt #:   203  of   300
     total cpu time spent up to now is      803.4 secs

     Computing kpt #:   204  of   300
     total cpu time spent up to now is      807.5 secs

     Computing kpt #:   205  of   300
     total cpu time spent up to now is      811.7 secs

     Computing kpt #:   206  of   300
     total cpu time spent up to now is      815.0 secs

     Computing kpt #:   207  of   300
     total cpu time spent up to now is      818.5 secs

     Computing kpt #:   208  of   300
     total cpu time spent up to now is      821.9 secs

     Computing kpt #:   209  of   300
     total cpu time spent up to now is      826.0 secs

     Computing kpt #:   210  of   300
     total cpu time spent up to now is      829.6 secs

     Computing kpt #:   211  of   300
     total cpu time spent up to now is      833.9 secs

     Computing kpt #:   212  of   300
     total cpu time spent up to now is      838.2 secs

     Computing kpt #:   213  of   300
     total cpu time spent up to now is      842.9 secs

     Computing kpt #:   214  of   300
     total cpu time spent up to now is      847.3 secs

     Computing kpt #:   215  of   300
     total cpu time spent up to now is      850.9 secs

     Computing kpt #:   216  of   300
     total cpu time spent up to now is      855.5 secs

     Computing kpt #:   217  of   300
     total cpu time spent up to now is      859.3 secs

     Computing kpt #:   218  of   300
     total cpu time spent up to now is      863.8 secs

     Computing kpt #:   219  of   300
     total cpu time spent up to now is      868.2 secs

     Computing kpt #:   220  of   300
     total cpu time spent up to now is      872.0 secs

     Computing kpt #:   221  of   300
     total cpu time spent up to now is      876.2 secs

     Computing kpt #:   222  of   300
     total cpu time spent up to now is      880.4 secs

     Computing kpt #:   223  of   300
     total cpu time spent up to now is      884.3 secs

     Computing kpt #:   224  of   300
     total cpu time spent up to now is      888.7 secs

     Computing kpt #:   225  of   300
     total cpu time spent up to now is      892.5 secs

     Computing kpt #:   226  of   300
     total cpu time spent up to now is      896.1 secs

     Computing kpt #:   227  of   300
     total cpu time spent up to now is      900.1 secs

     Computing kpt #:   228  of   300
     total cpu time spent up to now is      903.8 secs

     Computing kpt #:   229  of   300
     total cpu time spent up to now is      908.0 secs

     Computing kpt #:   230  of   300
     total cpu time spent up to now is      912.2 secs

     Computing kpt #:   231  of   300
     total cpu time spent up to now is      915.7 secs

     Computing kpt #:   232  of   300
     total cpu time spent up to now is      919.3 secs

     Computing kpt #:   233  of   300
     total cpu time spent up to now is      922.8 secs

     Computing kpt #:   234  of   300
     total cpu time spent up to now is      926.7 secs

     Computing kpt #:   235  of   300
     total cpu time spent up to now is      930.8 secs

     Computing kpt #:   236  of   300
     total cpu time spent up to now is      934.2 secs

     Computing kpt #:   237  of   300
     total cpu time spent up to now is      937.9 secs

     Computing kpt #:   238  of   300
     total cpu time spent up to now is      941.4 secs

     Computing kpt #:   239  of   300
     total cpu time spent up to now is      945.2 secs

     Computing kpt #:   240  of   300
     total cpu time spent up to now is      948.7 secs

     Computing kpt #:   241  of   300
     total cpu time spent up to now is      953.7 secs

     Computing kpt #:   242  of   300
     total cpu time spent up to now is      958.8 secs

     Computing kpt #:   243  of   300
     total cpu time spent up to now is      963.6 secs

     Computing kpt #:   244  of   300
     total cpu time spent up to now is      968.3 secs

     Computing kpt #:   245  of   300
     total cpu time spent up to now is      972.0 secs

     Computing kpt #:   246  of   300
     total cpu time spent up to now is      976.9 secs

     Computing kpt #:   247  of   300
     total cpu time spent up to now is      981.3 secs

     Computing kpt #:   248  of   300
     total cpu time spent up to now is      986.3 secs

     Computing kpt #:   249  of   300
     total cpu time spent up to now is      991.0 secs

[...]
     1.0000   1.0000   1.0000   1.0000   1.0000   1.0000   1.0000   1.0000
     1.0000   1.0000   1.0000   1.0000   1.0000   1.0000   1.0000   1.0000
     1.0000   1.0000   0.0011   0.0011   0.0000   0.0000   0.0000

          k =-0.5000 0.0787 0.0270 (  5884 PWs)   bands (ev):

   -77.5199 -77.5199 -43.9346 -43.9346 -43.7876 -43.7876 -43.4614 -43.4614
    -2.2167  -2.2150   0.1951   0.2088   3.6770   3.8079   5.1009   5.2908
     6.0406   6.0536   6.5553   6.5644   7.0273   7.0338   7.8590   7.9358
     8.2784   8.3243   8.9051   8.9218   9.8804  10.0416  10.4246

     occupation numbers 
     1.0000   1.0000   1.0000   1.0000   1.0000   1.0000   1.0000   1.0000
     1.0000   1.0000   1.0000   1.0000   1.0000   1.0000   1.0000   1.0000
     1.0000   1.0000   1.0000   1.0000   1.0000   1.0000   1.0000   1.0000
     1.0000   1.0000   0.0000   0.0000   0.0000   0.0000   0.0000

          k =-0.5000 0.0787 0.0809 (  5894 PWs)   bands (ev):

   -77.5199 -77.5199 -43.9346 -43.9346 -43.7876 -43.7876 -43.4614 -43.4614
    -2.2005  -2.1960   0.1461   0.1802   3.5403   3.8359   5.0787   5.5529
     5.9262   5.9808   6.6579   6.7833   6.9503   7.0825   7.8081   7.9862
     8.2296   8.3238   8.8855   8.9287   9.6570  10.0412  10.5201

     occupation numbers 
     1.0000   1.0000   1.0000   1.0000   1.0000   1.0000   1.0000   1.0000
     1.0000   1.0000   1.0000   1.0000   1.0000   1.0000   1.0000   1.0000
     1.0000   1.0000   1.0000   1.0000   1.0000   1.0000   1.0000   1.0000
     1.0000   1.0000   0.0000   0.0000   0.0000   0.0000   0.0000

          k =-0.5000 0.0787 0.1348 (  5890 PWs)   bands (ev):

   -77.5199 -77.5199 -43.9346 -43.9346 -43.7876 -43.7876 -43.4614 -43.4614
    -2.1729  -2.1675   0.0838   0.1216   3.4604   3.7473   5.2103   5.7492
     5.8607   5.9409   6.5757   6.7987   7.1209   7.3747   7.8117   7.9814
     8.2083   8.2655   8.8639   8.9224   9.4149   9.8792  10.6734

     occupation numbers 
     1.0000   1.0000   1.0000   1.0000   1.0000   1.0000   1.0000   1.0000
     1.0000   1.0000   1.0000   1.0000   1.0000   1.0000   1.0000   1.0000
     1.0000   1.0000   1.0000   1.0000   1.0000   1.0000   1.0000   1.0000
     1.0000   1.0000   0.0001   0.0000   0.0000   0.0000   0.0000

          k =-0.5000 0.0787 0.1887 (  5890 PWs)   bands (ev):

   -77.5199 -77.5199 -43.9346 -43.9346 -43.7876 -43.7876 -43.4614 -43.4614
    -2.1464  -2.1427   0.0363   0.0605   3.4538   3.6206   5.3808   5.6478
     5.9820   6.0571   6.4152   6.6092   7.5016   7.7363   7.8732   7.9217
     8.1635   8.1893   8.8290   8.8986   9.2605   9.6112  10.7680

     occupation numbers 
     1.0000   1.0000   1.0000   1.0000   1.0000   1.0000   1.0000   1.0000
     1.0000   1.0000   1.0000   1.0000   1.0000   1.0000   1.0000   1.0000
     1.0000   1.0000   1.0000   1.0000   1.0000   1.0000   1.0000   1.0000
     1.0000   1.0000   0.0014   0.0000   0.0000   0.0000   0.0000

          k =-0.5000 0.0787-0.2426 (  5876 PWs)   bands (ev):

   -77.5199 -77.5199 -43.9346 -43.9346 -43.7875 -43.7875 -43.4614 -43.4614
    -2.1341  -2.1341   0.0267   0.0267   3.5132   3.5132   5.5242   5.5242
     6.0899   6.0899   6.4220   6.4220   7.7924   7.7924   7.9650   7.9650
     8.0735   8.0735   8.8495   8.8495   9.3406   9.3406  10.7933

     occupation numbers 
     1.0000   1.0000   1.0000   1.0000   1.0000   1.0000   1.0000   1.0000
     1.0000   1.0000   1.0000   1.0000   1.0000   1.0000   1.0000   1.0000
     1.0000   1.0000   1.0000   1.0000   1.0000   1.0000   1.0000   1.0000
     1.0000   1.0000   0.0003   0.0003   0.0000   0.0000   0.0000

          k =-0.5000 0.1312 0.0270 (  5880 PWs)   bands (ev):

   -77.5199 -77.5199 -43.9346 -43.9346 -43.7876 -43.7876 -43.4614 -43.4614
    -2.1978  -2.1955   0.1717   0.1893   3.7533   3.9467   4.9382   5.1405
     5.9034   5.9802   6.4457   6.4531   7.0744   7.0840   7.8761   7.8884
     8.2563   8.3081   8.9400   8.9546   9.8623  10.0015  10.6682

     occupation numbers 
     1.0000   1.0000   1.0000   1.0000   1.0000   1.0000   1.0000   1.0000
     1.0000   1.0000   1.0000   1.0000   1.0000   1.0000   1.0000   1.0000
     1.0000   1.0000   1.0000   1.0000   1.0000   1.0000   1.0000   1.0000
     1.0000   1.0000   0.0000   0.0000   0.0000   0.0000   0.0000

          k =-0.5000 0.1312 0.0809 (  5886 PWs)   bands (ev):

   -77.5199 -77.5199 -43.9346 -43.9346 -43.7876 -43.7876 -43.4614 -43.4614
    -2.1830  -2.1770   0.1270   0.1712   3.5654   3.9924   4.8762   5.3103
     5.7992   5.9600   6.6545   6.6990   6.9823   7.0456   7.9049   7.9409
     8.2367   8.3469   8.9111   8.9550   9.7221  10.1501  10.6765

     occupation numbers 
     1.0000   1.0000   1.0000   1.0000   1.0000   1.0000   1.0000   1.0000
     1.0000   1.0000   1.0000   1.0000   1.0000   1.0000   1.0000   1.0000
     1.0000   1.0000   1.0000   1.0000   1.0000   1.0000   1.0000   1.0000
     1.0000   1.0000   0.0000   0.0000   0.0000   0.0000   0.0000

          k =-0.5000 0.1312 0.1348 (  5902 PWs)   bands (ev):

   -77.5199 -77.5199 -43.9346 -43.9346 -43.7876 -43.7876 -43.4614 -43.4614
    -2.1573  -2.1501   0.0748   0.1243   3.4570   3.8551   4.9524   5.3197
     5.8252   6.0373   6.6892   6.8020   7.0042   7.3117   7.9569   7.9880
     8.2462   8.3271   8.8687   8.9413   9.5729  10.1744  10.7647

     occupation numbers 
     1.0000   1.0000   1.0000   1.0000   1.0000   1.0000   1.0000   1.0000
     1.0000   1.0000   1.0000   1.0000   1.0000   1.0000   1.0000   1.0000
     1.0000   1.0000   1.0000   1.0000   1.0000   1.0000   1.0000   1.0000
     1.0000   1.0000   0.0001   0.0000   0.0000   0.0000   0.0000

          k =-0.5000 0.1312 0.1887 (  5898 PWs)   bands (ev):

   -77.5199 -77.5199 -43.9346 -43.9346 -43.7876 -43.7875 -43.4614 -43.4614
    -2.1321  -2.1272   0.0385   0.0704   3.4465   3.6732   5.0339   5.2239
     5.9817   6.1808   6.5198   6.6503   7.3620   7.6810   7.9926   8.0252
     8.2189   8.2398   8.8342   8.9115   9.5204   9.9708  10.9217

     occupation numbers 
     1.0000   1.0000   1.0000   1.0000   1.0000   1.0000   1.0000   1.0000
     1.0000   1.0000   1.0000   1.0000   1.0000   1.0000   1.0000   1.0000
     1.0000   1.0000   1.0000   1.0000   1.0000   1.0000   1.0000   1.0000
     1.0000   1.0000   0.0010   0.0000   0.0000   0.0000   0.0000

          k =-0.5000 0.1312-0.2426 (  5880 PWs)   bands (ev):

   -77.5199 -77.5199 -43.9346 -43.9346 -43.7875 -43.7875 -43.4614 -43.4614
    -2.1199  -2.1199   0.0363   0.0363   3.5256   3.5256   5.1188   5.1188
     6.1695   6.1695   6.4972   6.4972   7.6904   7.6904   8.0875   8.0875
     8.1170   8.1170   8.8639   8.8639   9.6816   9.6816  10.9957

     occupation numbers 
     1.0000   1.0000   1.0000   1.0000   1.0000   1.0000   1.0000   1.0000
     1.0000   1.0000   1.0000   1.0000   1.0000   1.0000   1.0000   1.0000
     1.0000   1.0000   1.0000   1.0000   1.0000   1.0000   1.0000   1.0000
     1.0000   1.0000   0.0001   0.0001   0.0000   0.0000   0.0000

          k =-0.5000 0.1837 0.0270 (  5882 PWs)   bands (ev):

   -77.5199 -77.5199 -43.9346 -43.9346 -43.7876 -43.7876 -43.4614 -43.4614
    -2.1763  -2.1741   0.1484   0.1643   3.8789   4.0894   4.7961   4.9476
     5.7860   6.0115   6.3107   6.3697   6.9239   6.9259   7.9277   7.9703
     8.2535   8.2844   8.9784   8.9883   9.8803   9.9580  11.0598

     occupation numbers 
     1.0000   1.0000   1.0000   1.0000   1.0000   1.0000   1.0000   1.0000
     1.0000   1.0000   1.0000   1.0000   1.0000   1.0000   1.0000   1.0000
     1.0000   1.0000   1.0000   1.0000   1.0000   1.0000   1.0000   1.0000
     1.0000   1.0000   0.0000   0.0000   0.0000   0.0000   0.0000

          k =-0.5000 0.1837 0.0809 (  5884 PWs)   bands (ev):

   -77.5199 -77.5199 -43.9346 -43.9346 -43.7876 -43.7876 -43.4614 -43.4614
    -2.1625  -2.1569   0.1126   0.1526   3.6633   4.1178   4.6928   5.0058
     5.7116   6.1093   6.5693   6.5713   6.8757   6.9202   7.9496   8.0335
     8.2570   8.3436   8.9497   8.9812   9.8337  10.1016  10.9867

     occupation numbers 
     1.0000   1.0000   1.0000   1.0000   1.0000   1.0000   1.0000   1.0000
     1.0000   1.0000   1.0000   1.0000   1.0000   1.0000   1.0000   1.0000
     1.0000   1.0000   1.0000   1.0000   1.0000   1.0000   1.0000   1.0000
     1.0000   1.0000   0.0000   0.0000   0.0000   0.0000   0.0000

          k =-0.5000 0.1837 0.1348 (  5890 PWs)   bands (ev):

   -77.5199 -77.5199 -43.9346 -43.9346 -43.7876 -43.7876 -43.4614 -43.4614
    -2.1387  -2.1319   0.0720   0.1174   3.5290   3.9447   4.6632   4.9399
     5.8494   6.1966   6.6501   6.7757   6.8782   7.2013   8.0188   8.0855
     8.2697   8.3771   8.9022   8.9587   9.8054  10.2913  10.9679

     occupation numbers 
     1.0000   1.0000   1.0000   1.0000   1.0000   1.0000   1.0000   1.0000
     1.0000   1.0000   1.0000   1.0000   1.0000   1.0000   1.0000   1.0000
     1.0000   1.0000   1.0000   1.0000   1.0000   1.0000   1.0000   1.0000
     1.0000   1.0000   0.0000   0.0000   0.0000   0.0000   0.0000

          k =-0.5000 0.1837 0.1887 (  5898 PWs)   bands (ev):

   -77.5199 -77.5199 -43.9346 -43.9346 -43.7876 -43.7876 -43.4614 -43.4614
    -2.1154  -2.1108   0.0451   0.0747   3.5022   3.7379   4.6637   4.8204
     6.0647   6.2906   6.5614   6.6768   7.2326   7.5534   8.0810   8.1220
     8.2522   8.3424   8.8619   8.9217   9.8597  10.3151  11.0470

     occupation numbers 
     1.0000   1.0000   1.0000   1.0000   1.0000   1.0000   1.0000   1.0000
     1.0000   1.0000   1.0000   1.0000   1.0000   1.0000   1.0000   1.0000
     1.0000   1.0000   1.0000   1.0000   1.0000   1.0000   1.0000   1.0000
     1.0000   1.0000   0.0001   0.0000   0.0000   0.0000   0.0000

          k =-0.5000 0.1837-0.2426 (  5904 PWs)   bands (ev):

   -77.5199 -77.5199 -43.9346 -43.9346 -43.7876 -43.7876 -43.4614 -43.4614
    -2.1042  -2.1042   0.0457   0.0457   3.5786   3.5786   4.7167   4.7167
     6.2464   6.2464   6.5715   6.5715   7.5530   7.5530   8.1268   8.1268
     8.2610   8.2610   8.8775   8.8775  10.0728  10.0728  11.1192

     occupation numbers 
     1.0000   1.0000   1.0000   1.0000   1.0000   1.0000   1.0000   1.0000
     1.0000   1.0000   1.0000   1.0000   1.0000   1.0000   1.0000   1.0000
     1.0000   1.0000   1.0000   1.0000   1.0000   1.0000   1.0000   1.0000
     1.0000   1.0000   0.0000   0.0000   0.0000   0.0000   0.0000

          k =-0.5000 0.2361 0.0270 (  5886 PWs)   bands (ev):

   -77.5199 -77.5199 -43.9346 -43.9346 -43.7876 -43.7876 -43.4614 -43.4614
    -2.1590  -2.1577   0.1327   0.1419   4.0279   4.1766   4.7120   4.7933
     5.7260   5.9371   6.3002   6.3745   6.7248   6.7304   7.9672   8.0070
     8.2631   8.2723   9.0095   9.0144   9.9046   9.9354  11.6298

     occupation numbers 
     1.0000   1.0000   1.0000   1.0000   1.0000   1.0000   1.0000   1.0000
     1.0000   1.0000   1.0000   1.0000   1.0000   1.0000   1.0000   1.0000
     1.0000   1.0000   1.0000   1.0000   1.0000   1.0000   1.0000   1.0000
     1.0000   1.0000   0.0000   0.0000   0.0000   0.0000   0.0000

          k =-0.5000 0.2361 0.0809 (  5878 PWs)   bands (ev):

   -77.5199 -77.5199 -43.9346 -43.9346 -43.7876 -43.7876 -43.4614 -43.4614
    -2.1456  -2.1421   0.1074   0.1310   3.8239   4.1468   4.5652   4.7595
     5.7829   6.2223   6.3632   6.5328   6.7480   6.7873   8.0060   8.0878
     8.2744   8.3164   8.9863   9.0021   9.9183  10.0297  11.4561

     occupation numbers 
     1.0000   1.0000   1.0000   1.0000   1.0000   1.0000   1.0000   1.0000
     1.0000   1.0000   1.0000   1.0000   1.0000   1.0000   1.0000   1.0000
     1.0000   1.0000   1.0000   1.0000   1.0000   1.0000   1.0000   1.0000
     1.0000   1.0000   0.0000   0.0000   0.0000   0.0000   0.0000

          k =-0.5000 0.2361 0.1348 (  5878 PWs)   bands (ev):

   -77.5199 -77.5199 -43.9346 -43.9346 -43.7876 -43.7875 -43.4614 -43.4613
    -2.1230  -2.1189   0.0767   0.1036   3.6765   3.9902   4.4233   4.6325
     5.9969   6.3116   6.5282   6.7078   6.8319   7.0520   8.0932   8.1414
     8.2966   8.3858   8.9426   8.9716   9.9903  10.2147  11.2748

     occupation numbers 
     1.0000   1.0000   1.0000   1.0000   1.0000   1.0000   1.0000   1.0000
     1.0000   1.0000   1.0000   1.0000   1.0000   1.0000   1.0000   1.0000
     1.0000   1.0000   1.0000   1.0000   1.0000   1.0000   1.0000   1.0000
     1.0000   1.0000   0.0000   0.0000   0.0000   0.0000   0.0000

          k =-0.5000 0.2361 0.1887 (  5900 PWs)   bands (ev):

   -77.5199 -77.5199 -43.9346 -43.9346 -43.7876 -43.7876 -43.4614 -43.4614
    -2.1016  -2.0989   0.0544   0.0720   3.6276   3.8135   4.3552   4.4861
     6.1842   6.3433   6.5797   6.6824   7.1801   7.3937   8.1287   8.1466
     8.3379   8.4187   8.8939   8.9261  10.1539  10.4214  11.1823

     occupation numbers 
     1.0000   1.0000   1.0000   1.0000   1.0000   1.0000   1.0000   1.0000
     1.0000   1.0000   1.0000   1.0000   1.0000   1.0000   1.0000   1.0000
     1.0000   1.0000   1.0000   1.0000   1.0000   1.0000   1.0000   1.0000
     1.0000   1.0000   0.0000   0.0000   0.0000   0.0000   0.0000

          k =-0.5000 0.2361-0.2426 (  5916 PWs)   bands (ev):

   -77.5200 -77.5200 -43.9346 -43.9346 -43.7876 -43.7876 -43.4615 -43.4615
    -2.0919  -2.0919   0.0522   0.0522   3.6799   3.6799   4.3812   4.3812
     6.3011   6.3011   6.6277   6.6277   7.4638   7.4638   8.1175   8.1175
     8.3928   8.3928   8.8872   8.8872  10.3816  10.3816  11.2128

     occupation numbers 
     1.0000   1.0000   1.0000   1.0000   1.0000   1.0000   1.0000   1.0000
     1.0000   1.0000   1.0000   1.0000   1.0000   1.0000   1.0000   1.0000
     1.0000   1.0000   1.0000   1.0000   1.0000   1.0000   1.0000   1.0000
     1.0000   1.0000   0.0000   0.0000   0.0000   0.0000   0.0000

          k =-0.5000-0.2886 0.0270 (  5872 PWs)   bands (ev):

   -77.5199 -77.5199 -43.9346 -43.9346 -43.7875 -43.7875 -43.4614 -43.4614
    -2.1520  -2.1520   0.1301   0.1301   4.1501   4.1501   4.7101   4.7101
     5.7848   5.7848   6.3945   6.3945   6.6139   6.6139   7.9948   7.9948
     8.2695   8.2695   9.0224   9.0224   9.9218   9.9218  12.2173

     occupation numbers 
     1.0000   1.0000   1.0000   1.0000   1.0000   1.0000   1.0000   1.0000
     1.0000   1.0000   1.0000   1.0000   1.0000   1.0000   1.0000   1.0000
     1.0000   1.0000   1.0000   1.0000   1.0000   1.0000   1.0000   1.0000
     1.0000   1.0000   0.0000   0.0000   0.0000   0.0000   0.0000

          k =-0.5000-0.2886 0.0809 (  5864 PWs)   bands (ev):

   -77.5199 -77.5199 -43.9346 -43.9346 -43.7875 -43.7875 -43.4613 -43.4613
    -2.1379  -2.1379   0.1140   0.1140   4.0152   4.0152   4.5975   4.5975
     5.9968   5.9968   6.4556   6.4556   6.7081   6.7081   8.0668   8.0668
     8.2907   8.2907   9.0053   9.0053   9.9739   9.9739  12.0487

     occupation numbers 
     1.0000   1.0000   1.0000   1.0000   1.0000   1.0000   1.0000   1.0000
     1.0000   1.0000   1.0000   1.0000   1.0000   1.0000   1.0000   1.0000
     1.0000   1.0000   1.0000   1.0000   1.0000   1.0000   1.0000   1.0000
     1.0000   1.0000   0.0000   0.0000   0.0000   0.0000   0.0000

          k =-0.5000-0.2886 0.1348 (  5892 PWs)   bands (ev):

   -77.5199 -77.5199 -43.9346 -43.9346 -43.7876 -43.7876 -43.4614 -43.4614
    -2.1156  -2.1156   0.0882   0.0882   3.8716   3.8716   4.4261   4.4261
     6.2012   6.2012   6.5730   6.5730   6.9149   6.9149   8.1423   8.1423
     8.3461   8.3461   8.9683   8.9683  10.1090  10.1090  11.7713

     occupation numbers 
     1.0000   1.0000   1.0000   1.0000   1.0000   1.0000   1.0000   1.0000
     1.0000   1.0000   1.0000   1.0000   1.0000   1.0000   1.0000   1.0000
     1.0000   1.0000   1.0000   1.0000   1.0000   1.0000   1.0000   1.0000
     1.0000   1.0000   0.0000   0.0000   0.0000   0.0000   0.0000

          k =-0.5000-0.2886 0.1887 (  5888 PWs)   bands (ev):

   -77.5199 -77.5199 -43.9346 -43.9346 -43.7876 -43.7876 -43.4614 -43.4614
    -2.0954  -2.0954   0.0642   0.0642   3.7844   3.7844   4.2792   4.2792
     6.2939   6.2939   6.6360   6.6360   7.2475   7.2475   8.1428   8.1428
     8.4170   8.4170   8.9177   8.9177  10.3321  10.3321  11.5017

     occupation numbers 
     1.0000   1.0000   1.0000   1.0000   1.0000   1.0000   1.0000   1.0000
     1.0000   1.0000   1.0000   1.0000   1.0000   1.0000   1.0000   1.0000
     1.0000   1.0000   1.0000   1.0000   1.0000   1.0000   1.0000   1.0000
     1.0000   1.0000   0.0000   0.0000   0.0000   0.0000   0.0000

          k =-0.5000-0.2886-0.2426 (  5904 PWs)   bands (ev):

   -77.5199 -77.5199 -43.9346 -43.9346 -43.7876 -43.7876 -43.4615 -43.4615
    -2.0873  -2.0873   0.0544   0.0544   3.7582   3.7582   4.2211   4.2211
     6.3210   6.3210   6.6483   6.6483   7.4340   7.4340   8.1097   8.1097
     8.4448   8.4448   8.8905   8.8905  10.4791  10.4791  11.3909

     occupation numbers 
     1.0000   1.0000   1.0000   1.0000   1.0000   1.0000   1.0000   1.0000
     1.0000   1.0000   1.0000   1.0000   1.0000   1.0000   1.0000   1.0000
     1.0000   1.0000   1.0000   1.0000   1.0000   1.0000   1.0000   1.0000
     1.0000   1.0000   0.0000   0.0000   0.0000   0.0000   0.0000

     the Fermi energy is     8.6854 ev
     (compare with:     8.6096 eV, computed in scf)

     Writing output data file ../tmp/FeAs2.save/

     init_run     :      6.53s CPU      7.50s WALL (       1 calls)
     electrons    :   1167.80s CPU   1190.70s WALL (       1 calls)

     Called by init_run:
     wfcinit      :      0.00s CPU      0.00s WALL (       1 calls)
     wfcinit:atom :      0.48s CPU      0.54s WALL (     300 calls)
     wfcinit:wfcr :     44.13s CPU     45.25s WALL (     300 calls)
     potinit      :      1.09s CPU      1.33s WALL (       1 calls)
     hinit0       :      4.00s CPU      4.06s WALL (       1 calls)

     Called by electrons:
     c_bands      :   1167.76s CPU   1190.59s WALL (       1 calls)
     v_of_rho     :      0.40s CPU      0.50s WALL (       1 calls)
     v_h          :      0.03s CPU      0.03s WALL (       1 calls)
     v_xc         :      0.37s CPU      0.47s WALL (       1 calls)
     newd         :      1.19s CPU      1.81s WALL (       1 calls)
     PAW_pot      :      0.64s CPU      0.66s WALL (       1 calls)

     Called by c_bands:
     init_us_2    :      0.40s CPU      0.61s WALL (     300 calls)
     cegterg      :   1117.26s CPU   1138.02s WALL (     836 calls)

     Called by sum_band:

     Called by *egterg:
     cdiaghg      :     22.57s CPU     22.80s WALL (   14390 calls)
     cegterg:over :     38.60s CPU     39.10s WALL (   14090 calls)
     cegterg:upda :     26.52s CPU     26.74s WALL (   14090 calls)
     cegterg:last :     67.00s CPU     67.39s WALL (    7747 calls)
     h_psi        :    956.73s CPU    977.04s WALL (   15226 calls)
     s_psi        :     22.92s CPU     23.17s WALL (   15226 calls)
     g_psi        :     12.74s CPU     12.83s WALL (   14090 calls)

     Called by h_psi:
     h_psi:calbec :     26.02s CPU     26.48s WALL (   15226 calls)
     vloc_psi     :    902.41s CPU    921.97s WALL (   15226 calls)
     add_vuspsi   :     23.33s CPU     23.64s WALL (   15226 calls)

     General routines
     calbec       :     25.92s CPU     26.43s WALL (   15226 calls)
     fft          :      0.30s CPU      0.36s WALL (      13 calls)
     ffts         :      0.00s CPU      0.00s WALL (       1 calls)
     fftw         :    795.79s CPU    813.48s WALL (  494434 calls)
     interpolate  :      0.02s CPU      0.03s WALL (       1 calls)
     davcio       :      0.31s CPU      0.86s WALL (     600 calls)

     Parallel routines
     fft_scatt_xy :     80.76s CPU     81.89s WALL (  494448 calls)
     fft_scatt_yz :     80.55s CPU     82.40s WALL (  494448 calls)

     PAW routines
     PAW_pot      :      0.64s CPU      0.66s WALL (       1 calls)

     PWSCF        :  19m38.94s CPU  20m16.75s WALL


   This run was terminated on:   1:23:29  30Nov2020            

=------------------------------------------------------------------------------=
   JOB DONE.
=------------------------------------------------------------------------------=
