
     Program PWSCF v.6.6 starts on 23Nov2020 at 10:37: 0 

     This program is part of the open-source Quantum ESPRESSO suite
     for quantum simulation of materials; please cite
         "P. Giannozzi et al., J. Phys.:Condens. Matter 21 395502 (2009);
         "P. Giannozzi et al., J. Phys.:Condens. Matter 29 465901 (2017);
          URL http://www.quantum-espresso.org", 
     in publications or presentations arising from this work. More details at
     http://www.quantum-espresso.org/quote

     Parallel version (MPI & OpenMP), running on       2 processor cores
     Number of MPI processes:                 2
     Threads/MPI process:                     1

     MPI processes distributed on     1 nodes
     R & G space division:  proc/nbgrp/npool/nimage =       2
     Fft bands division:     nmany     =       1
     Waiting for input...
     Reading input from standard input

     Current dimensions of program PWSCF are:
     Max number of different atomic species (ntypx) = 10
     Max number of k-points (npk) =  40000
     Max angular momentum in pseudopotentials (lmaxx) =  3

     Atomic positions and unit cell read from directory:
     ../tmp/PtS2.save/
     Atomic positions from file used, from input discarded

     file Pt.pbesol-n-kjpaw_psl.1.0.0.UPF: wavefunction(s)  6S 5D renormalized
     file S.pbesol-n-kjpaw_psl.1.0.0.UPF: wavefunction(s)  3S 3P renormalized

     Subspace diagonalization in iterative solution of the eigenvalue problem:
     a serial algorithm will be used

     Message from routine setup:
     using ibrav=0 with symmetry is DISCOURAGED, use correct ibrav instead

     Parallelization info
     --------------------
     sticks:   dense  smooth     PW     G-vecs:    dense   smooth      PW
     Min        1257     630    183                81015    28654    4617
     Max        1258     631    184                81020    28655    4618
     Sum        2515    1261    367               162035    57309    9235



     bravais-lattice index     =            0
     lattice parameter (alat)  =       6.7426  a.u.
     unit-cell volume          =     423.8593 (a.u.)^3
     number of atoms/cell      =            3
     number of atomic types    =            2
     number of electrons       =        22.00
     number of Kohn-Sham states=           15
     kinetic-energy cutoff     =     100.0000  Ry
     charge density cutoff     =     800.0000  Ry
     Exchange-correlation= SLA PW PSX PSC
                           (   1   4  10   8   0   0   0)

     celldm(1)=   6.742619  celldm(2)=   0.000000  celldm(3)=   0.000000
     celldm(4)=   0.000000  celldm(5)=   0.000000  celldm(6)=   0.000000

     crystal axes: (cart. coord. in units of alat)
               a(1) = (   0.500007  -0.866021  -0.000039 )  
               a(2) = (   0.500007   0.866021   0.000039 )  
               a(3) = (   0.000000   0.000074   1.596618 )  

     reciprocal axes: (cart. coord. in units 2 pi/alat)
               b(1) = (  0.999985 -0.577353  0.000027 )  
               b(2) = (  0.999985  0.577353 -0.000027 )  
               b(3) = (  0.000000 -0.000029  0.626324 )  


     PseudoPot. # 1 for Pt read from file:
     ../pseudo/Pt.pbesol-n-kjpaw_psl.1.0.0.UPF
     MD5 check sum: 69d95fb882bc7104562b97735771992c
     Pseudo is Projector augmented-wave + core cor, Zval = 10.0
     Generated using "atomic" code by A. Dal Corso v.6.3
     Shape of augmentation charge: PSQ
     Using radial grid of 1277 points,  6 beta functions with: 
                l(1) =   0
                l(2) =   0
                l(3) =   1
                l(4) =   1
                l(5) =   2
                l(6) =   2
     Q(r) pseudized with 0 coefficients 


     PseudoPot. # 2 for S  read from file:
     ../pseudo/S.pbesol-n-kjpaw_psl.1.0.0.UPF
     MD5 check sum: 78fd7400f5a58a0528e41d867b94a9a4
     Pseudo is Projector augmented-wave + core cor, Zval =  6.0
     Generated using "atomic" code by A. Dal Corso v.6.3
     Shape of augmentation charge: PSQ
     Using radial grid of 1151 points,  6 beta functions with: 
                l(1) =   0
                l(2) =   0
                l(3) =   1
                l(4) =   1
                l(5) =   2
                l(6) =   2
     Q(r) pseudized with 0 coefficients 


     atomic species   valence    mass     pseudopotential
        Pt            10.00   195.08400     Pt( 1.00)
        S              6.00    32.06500     S ( 1.00)

      4 Sym. Ops., with inversion, found


                                    s                        frac. trans.

      isym =  1     identity                                     

 cryst.   s( 1) = (     1          0          0      )
                  (     0          1          0      )
                  (     0          0          1      )

 cart.    s( 1) = (  1.0000000  0.0000000  0.0000000 )
                  (  0.0000000  1.0000000 -0.0000000 )
                  (  0.0000000  0.0000000  1.0000000 )


      isym =  2     180 deg rotation - cart. axis [1,0,0]        

 cryst.   s( 2) = (     0          1          0      )
                  (     1          0          0      )
                  (     0          0         -1      )

 cart.    s( 2) = (  1.0000000  0.0000000  0.0000000 )
                  (  0.0000000 -1.0000000  0.0000000 )
                  (  0.0000000  0.0000000 -1.0000000 )


      isym =  3     inversion                                    

 cryst.   s( 3) = (    -1          0          0      )
                  (     0         -1          0      )
                  (     0          0         -1      )

 cart.    s( 3) = ( -1.0000000  0.0000000  0.0000000 )
                  (  0.0000000 -1.0000000  0.0000000 )
                  (  0.0000000  0.0000000 -1.0000000 )


      isym =  4     inv. 180 deg rotation - cart. axis [1,0,0]   

 cryst.   s( 4) = (     0         -1          0      )
                  (    -1          0          0      )
                  (     0          0          1      )

 cart.    s( 4) = ( -1.0000000  0.0000000  0.0000000 )
                  (  0.0000000  1.0000000 -0.0000000 )
                  (  0.0000000  0.0000000  1.0000000 )


   Cartesian axes

     site n.     atom                  positions (alat units)
         1           Pt  tau(   1) = (   0.0000000   0.0000000   0.0000000  )
         2           S   tau(   2) = (   0.5000073   0.2886682   0.3470953  )
         3           S   tau(   3) = (   0.5000073  -0.2885946   1.2495225  )

   Crystallographic axes

     site n.     atom                  positions (cryst. coord.)
         1           Pt  tau(   1) = (  0.0000000  0.0000000  0.0000000  )
         2           S   tau(   2) = (  0.3333458  0.6666542  0.2173859  )
         3           S   tau(   3) = (  0.6666542  0.3333458  0.7826141  )

     number of k points=   468  Gaussian smearing, width (Ry)=  0.0050
                       cart. coord. in units 2pi/alat
        k(    1) = (   0.0833321  -0.0000012   0.0260968), wk =   0.0046296
        k(    2) = (   0.0833321  -0.0000036   0.0782905), wk =   0.0046296
        k(    3) = (   0.0833321  -0.0000059   0.1304842), wk =   0.0046296
        k(    4) = (   0.0833321  -0.0000083   0.1826778), wk =   0.0046296
        k(    5) = (   0.0833321  -0.0000107   0.2348715), wk =   0.0046296
        k(    6) = (   0.0833321  -0.0000131   0.2870652), wk =   0.0046296
        k(    7) = (   0.1666642   0.0481116   0.0260946), wk =   0.0046296
        k(    8) = (   0.1666642   0.0481092   0.0782883), wk =   0.0046296
        k(    9) = (   0.1666642   0.0481068   0.1304819), wk =   0.0046296
        k(   10) = (   0.1666642   0.0481044   0.1826756), wk =   0.0046296
        k(   11) = (   0.1666642   0.0481021   0.2348693), wk =   0.0046296
        k(   12) = (   0.1666642   0.0480997   0.2870629), wk =   0.0046296
        k(   13) = (   0.1666642   0.0481258  -0.2870674), wk =   0.0046296
        k(   14) = (   0.1666642   0.0481235  -0.2348737), wk =   0.0046296
        k(   15) = (   0.1666642   0.0481211  -0.1826800), wk =   0.0046296
        k(   16) = (   0.1666642   0.0481187  -0.1304864), wk =   0.0046296
        k(   17) = (   0.1666642   0.0481163  -0.0782927), wk =   0.0046296
        k(   18) = (   0.1666642   0.0481139  -0.0260991), wk =   0.0046296
        k(   19) = (   0.2499964   0.0962243   0.0260924), wk =   0.0046296
        k(   20) = (   0.2499964   0.0962219   0.0782861), wk =   0.0046296
        k(   21) = (   0.2499964   0.0962196   0.1304797), wk =   0.0046296
        k(   22) = (   0.2499964   0.0962172   0.1826734), wk =   0.0046296
        k(   23) = (   0.2499964   0.0962148   0.2348671), wk =   0.0046296
        k(   24) = (   0.2499964   0.0962124   0.2870607), wk =   0.0046296
        k(   25) = (   0.2499964   0.0962386  -0.2870696), wk =   0.0046296
        k(   26) = (   0.2499964   0.0962362  -0.2348759), wk =   0.0046296
        k(   27) = (   0.2499964   0.0962338  -0.1826823), wk =   0.0046296
        k(   28) = (   0.2499964   0.0962315  -0.1304886), wk =   0.0046296
        k(   29) = (   0.2499964   0.0962291  -0.0782949), wk =   0.0046296
        k(   30) = (   0.2499964   0.0962267  -0.0261013), wk =   0.0046296
        k(   31) = (   0.3333285   0.1443371   0.0260902), wk =   0.0046296
        k(   32) = (   0.3333285   0.1443347   0.0782838), wk =   0.0046296
        k(   33) = (   0.3333285   0.1443323   0.1304775), wk =   0.0046296
        k(   34) = (   0.3333285   0.1443299   0.1826712), wk =   0.0046296
        k(   35) = (   0.3333285   0.1443276   0.2348648), wk =   0.0046296
        k(   36) = (   0.3333285   0.1443252   0.2870585), wk =   0.0046296
        k(   37) = (   0.3333285   0.1443513  -0.2870718), wk =   0.0046296
        k(   38) = (   0.3333285   0.1443490  -0.2348781), wk =   0.0046296
        k(   39) = (   0.3333285   0.1443466  -0.1826845), wk =   0.0046296
        k(   40) = (   0.3333285   0.1443442  -0.1304908), wk =   0.0046296
        k(   41) = (   0.3333285   0.1443418  -0.0782972), wk =   0.0046296
        k(   42) = (   0.3333285   0.1443395  -0.0261035), wk =   0.0046296
        k(   43) = (   0.4166606   0.1924498   0.0260880), wk =   0.0046296
        k(   44) = (   0.4166606   0.1924475   0.0782816), wk =   0.0046296
        k(   45) = (   0.4166606   0.1924451   0.1304753), wk =   0.0046296
        k(   46) = (   0.4166606   0.1924427   0.1826690), wk =   0.0046296
        k(   47) = (   0.4166606   0.1924403   0.2348626), wk =   0.0046296
        k(   48) = (   0.4166606   0.1924379   0.2870563), wk =   0.0046296
        k(   49) = (   0.4166606   0.1924641  -0.2870740), wk =   0.0046296
        k(   50) = (   0.4166606   0.1924617  -0.2348804), wk =   0.0046296
        k(   51) = (   0.4166606   0.1924593  -0.1826867), wk =   0.0046296
        k(   52) = (   0.4166606   0.1924570  -0.1304930), wk =   0.0046296
        k(   53) = (   0.4166606   0.1924546  -0.0782994), wk =   0.0046296
        k(   54) = (   0.4166606   0.1924522  -0.0261057), wk =   0.0046296
        k(   55) = (   0.4999927   0.2405626   0.0260857), wk =   0.0046296
        k(   56) = (   0.4999927   0.2405602   0.0782794), wk =   0.0046296
        k(   57) = (   0.4999927   0.2405578   0.1304731), wk =   0.0046296
        k(   58) = (   0.4999927   0.2405555   0.1826667), wk =   0.0046296
        k(   59) = (   0.4999927   0.2405531   0.2348604), wk =   0.0046296
        k(   60) = (   0.4999927   0.2405507   0.2870541), wk =   0.0046296
        k(   61) = (   0.4999927   0.2405769  -0.2870762), wk =   0.0046296
        k(   62) = (   0.4999927   0.2405745  -0.2348826), wk =   0.0046296
        k(   63) = (   0.4999927   0.2405721  -0.1826889), wk =   0.0046296
        k(   64) = (   0.4999927   0.2405697  -0.1304953), wk =   0.0046296
        k(   65) = (   0.4999927   0.2405673  -0.0783016), wk =   0.0046296
        k(   66) = (   0.4999927   0.2405650  -0.0261079), wk =   0.0046296
        k(   67) = (  -0.4166606  -0.2886777   0.0261101), wk =   0.0046296
        k(   68) = (  -0.4166606  -0.2886801   0.0783038), wk =   0.0046296
        k(   69) = (  -0.4166606  -0.2886825   0.1304975), wk =   0.0046296
        k(   70) = (  -0.4166606  -0.2886849   0.1826911), wk =   0.0046296
        k(   71) = (  -0.4166606  -0.2886872   0.2348848), wk =   0.0046296
        k(   72) = (  -0.4166606  -0.2886896   0.2870785), wk =   0.0046296
        k(   73) = (  -0.4166606  -0.2886635  -0.2870519), wk =   0.0046296
        k(   74) = (  -0.4166606  -0.2886658  -0.2348582), wk =   0.0046296
        k(   75) = (  -0.4166606  -0.2886682  -0.1826645), wk =   0.0046296
        k(   76) = (  -0.4166606  -0.2886706  -0.1304709), wk =   0.0046296
        k(   77) = (  -0.4166606  -0.2886730  -0.0782772), wk =   0.0046296
        k(   78) = (  -0.4166606  -0.2886753  -0.0260835), wk =   0.0046296
        k(   79) = (  -0.3333285  -0.2405650   0.0261079), wk =   0.0046296
        k(   80) = (  -0.3333285  -0.2405673   0.0783016), wk =   0.0046296
        k(   81) = (  -0.3333285  -0.2405697   0.1304953), wk =   0.0046296
        k(   82) = (  -0.3333285  -0.2405721   0.1826889), wk =   0.0046296
        k(   83) = (  -0.3333285  -0.2405745   0.2348826), wk =   0.0046296
        k(   84) = (  -0.3333285  -0.2405769   0.2870762), wk =   0.0046296
        k(   85) = (  -0.3333285  -0.2405507  -0.2870541), wk =   0.0046296
        k(   86) = (  -0.3333285  -0.2405531  -0.2348604), wk =   0.0046296
        k(   87) = (  -0.3333285  -0.2405555  -0.1826667), wk =   0.0046296
        k(   88) = (  -0.3333285  -0.2405578  -0.1304731), wk =   0.0046296
        k(   89) = (  -0.3333285  -0.2405602  -0.0782794), wk =   0.0046296
        k(   90) = (  -0.3333285  -0.2405626  -0.0260857), wk =   0.0046296
        k(   91) = (  -0.2499964  -0.1924522   0.0261057), wk =   0.0046296
        k(   92) = (  -0.2499964  -0.1924546   0.0782994), wk =   0.0046296
        k(   93) = (  -0.2499964  -0.1924570   0.1304930), wk =   0.0046296
        k(   94) = (  -0.2499964  -0.1924593   0.1826867), wk =   0.0046296
        k(   95) = (  -0.2499964  -0.1924617   0.2348804), wk =   0.0046296
        k(   96) = (  -0.2499964  -0.1924641   0.2870740), wk =   0.0046296
        k(   97) = (  -0.2499964  -0.1924379  -0.2870563), wk =   0.0046296
        k(   98) = (  -0.2499964  -0.1924403  -0.2348626), wk =   0.0046296
        k(   99) = (  -0.2499964  -0.1924427  -0.1826690), wk =   0.0046296
        k(  100) = (  -0.2499964  -0.1924451  -0.1304753), wk =   0.0046296
        k(  101) = (  -0.2499964  -0.1924475  -0.0782816), wk =   0.0046296
        k(  102) = (  -0.2499964  -0.1924498  -0.0260880), wk =   0.0046296
        k(  103) = (  -0.1666642  -0.1443395   0.0261035), wk =   0.0046296
        k(  104) = (  -0.1666642  -0.1443418   0.0782972), wk =   0.0046296
        k(  105) = (  -0.1666642  -0.1443442   0.1304908), wk =   0.0046296
        k(  106) = (  -0.1666642  -0.1443466   0.1826845), wk =   0.0046296
        k(  107) = (  -0.1666642  -0.1443490   0.2348781), wk =   0.0046296
        k(  108) = (  -0.1666642  -0.1443513   0.2870718), wk =   0.0046296
        k(  109) = (  -0.1666642  -0.1443252  -0.2870585), wk =   0.0046296
        k(  110) = (  -0.1666642  -0.1443276  -0.2348648), wk =   0.0046296
        k(  111) = (  -0.1666642  -0.1443299  -0.1826712), wk =   0.0046296
        k(  112) = (  -0.1666642  -0.1443323  -0.1304775), wk =   0.0046296
        k(  113) = (  -0.1666642  -0.1443347  -0.0782838), wk =   0.0046296
        k(  114) = (  -0.1666642  -0.1443371  -0.0260902), wk =   0.0046296
        k(  115) = (  -0.0833321  -0.0962267   0.0261013), wk =   0.0046296
        k(  116) = (  -0.0833321  -0.0962291   0.0782949), wk =   0.0046296
        k(  117) = (  -0.0833321  -0.0962315   0.1304886), wk =   0.0046296
        k(  118) = (  -0.0833321  -0.0962338   0.1826823), wk =   0.0046296
        k(  119) = (  -0.0833321  -0.0962362   0.2348759), wk =   0.0046296
        k(  120) = (  -0.0833321  -0.0962386   0.2870696), wk =   0.0046296
        k(  121) = (  -0.0833321  -0.0962124  -0.2870607), wk =   0.0046296
        k(  122) = (  -0.0833321  -0.0962148  -0.2348671), wk =   0.0046296
        k(  123) = (  -0.0833321  -0.0962172  -0.1826734), wk =   0.0046296
        k(  124) = (  -0.0833321  -0.0962196  -0.1304797), wk =   0.0046296
        k(  125) = (  -0.0833321  -0.0962219  -0.0782861), wk =   0.0046296
        k(  126) = (  -0.0833321  -0.0962243  -0.0260924), wk =   0.0046296
        k(  127) = (  -0.0000000  -0.0481139   0.0260991), wk =   0.0023148
        k(  128) = (  -0.0000000  -0.0481163   0.0782927), wk =   0.0023148
        k(  129) = (  -0.0000000  -0.0481187   0.1304864), wk =   0.0023148
        k(  130) = (  -0.0000000  -0.0481211   0.1826800), wk =   0.0023148
        k(  131) = (  -0.0000000  -0.0481235   0.2348737), wk =   0.0023148
        k(  132) = (  -0.0000000  -0.0481258   0.2870674), wk =   0.0023148
        k(  133) = (  -0.0000000  -0.0480997  -0.2870629), wk =   0.0023148
        k(  134) = (  -0.0000000  -0.0481021  -0.2348693), wk =   0.0023148
        k(  135) = (  -0.0000000  -0.0481044  -0.1826756), wk =   0.0023148
        k(  136) = (  -0.0000000  -0.0481068  -0.1304819), wk =   0.0023148
        k(  137) = (  -0.0000000  -0.0481092  -0.0782883), wk =   0.0023148
        k(  138) = (  -0.0000000  -0.0481116  -0.0260946), wk =   0.0023148
        k(  139) = (   0.2499964  -0.0000012   0.0260968), wk =   0.0046296
        k(  140) = (   0.2499964  -0.0000036   0.0782905), wk =   0.0046296
        k(  141) = (   0.2499964  -0.0000059   0.1304842), wk =   0.0046296
        k(  142) = (   0.2499964  -0.0000083   0.1826778), wk =   0.0046296
        k(  143) = (   0.2499964  -0.0000107   0.2348715), wk =   0.0046296
        k(  144) = (   0.2499964  -0.0000131   0.2870652), wk =   0.0046296
        k(  145) = (   0.3333285   0.0481116   0.0260946), wk =   0.0046296
        k(  146) = (   0.3333285   0.0481092   0.0782883), wk =   0.0046296
        k(  147) = (   0.3333285   0.0481068   0.1304819), wk =   0.0046296
        k(  148) = (   0.3333285   0.0481044   0.1826756), wk =   0.0046296
        k(  149) = (   0.3333285   0.0481021   0.2348693), wk =   0.0046296
        k(  150) = (   0.3333285   0.0480997   0.2870629), wk =   0.0046296
        k(  151) = (   0.3333285   0.0481258  -0.2870674), wk =   0.0046296
        k(  152) = (   0.3333285   0.0481235  -0.2348737), wk =   0.0046296
        k(  153) = (   0.3333285   0.0481211  -0.1826800), wk =   0.0046296
        k(  154) = (   0.3333285   0.0481187  -0.1304864), wk =   0.0046296
        k(  155) = (   0.3333285   0.0481163  -0.0782927), wk =   0.0046296
        k(  156) = (   0.3333285   0.0481139  -0.0260991), wk =   0.0046296
        k(  157) = (   0.4166606   0.0962243   0.0260924), wk =   0.0046296
        k(  158) = (   0.4166606   0.0962219   0.0782861), wk =   0.0046296
        k(  159) = (   0.4166606   0.0962196   0.1304797), wk =   0.0046296
        k(  160) = (   0.4166606   0.0962172   0.1826734), wk =   0.0046296
        k(  161) = (   0.4166606   0.0962148   0.2348671), wk =   0.0046296
        k(  162) = (   0.4166606   0.0962124   0.2870607), wk =   0.0046296
        k(  163) = (   0.4166606   0.0962386  -0.2870696), wk =   0.0046296
        k(  164) = (   0.4166606   0.0962362  -0.2348759), wk =   0.0046296
        k(  165) = (   0.4166606   0.0962338  -0.1826823), wk =   0.0046296
        k(  166) = (   0.4166606   0.0962315  -0.1304886), wk =   0.0046296
        k(  167) = (   0.4166606   0.0962291  -0.0782949), wk =   0.0046296
        k(  168) = (   0.4166606   0.0962267  -0.0261013), wk =   0.0046296
        k(  169) = (   0.4999927   0.1443371   0.0260902), wk =   0.0046296
        k(  170) = (   0.4999927   0.1443347   0.0782838), wk =   0.0046296
        k(  171) = (   0.4999927   0.1443323   0.1304775), wk =   0.0046296
        k(  172) = (   0.4999927   0.1443299   0.1826712), wk =   0.0046296
        k(  173) = (   0.4999927   0.1443276   0.2348648), wk =   0.0046296
        k(  174) = (   0.4999927   0.1443252   0.2870585), wk =   0.0046296
        k(  175) = (   0.4999927   0.1443513  -0.2870718), wk =   0.0046296
        k(  176) = (   0.4999927   0.1443490  -0.2348781), wk =   0.0046296
        k(  177) = (   0.4999927   0.1443466  -0.1826845), wk =   0.0046296
        k(  178) = (   0.4999927   0.1443442  -0.1304908), wk =   0.0046296
        k(  179) = (   0.4999927   0.1443418  -0.0782972), wk =   0.0046296
        k(  180) = (   0.4999927   0.1443395  -0.0261035), wk =   0.0046296
        k(  181) = (   0.5833249   0.1924498   0.0260880), wk =   0.0046296
        k(  182) = (   0.5833249   0.1924475   0.0782816), wk =   0.0046296
        k(  183) = (   0.5833249   0.1924451   0.1304753), wk =   0.0046296
        k(  184) = (   0.5833249   0.1924427   0.1826690), wk =   0.0046296
        k(  185) = (   0.5833249   0.1924403   0.2348626), wk =   0.0046296
        k(  186) = (   0.5833249   0.1924379   0.2870563), wk =   0.0046296
        k(  187) = (   0.5833249   0.1924641  -0.2870740), wk =   0.0046296
        k(  188) = (   0.5833249   0.1924617  -0.2348804), wk =   0.0046296
        k(  189) = (   0.5833249   0.1924593  -0.1826867), wk =   0.0046296
        k(  190) = (   0.5833249   0.1924570  -0.1304930), wk =   0.0046296
        k(  191) = (   0.5833249   0.1924546  -0.0782994), wk =   0.0046296
        k(  192) = (   0.5833249   0.1924522  -0.0261057), wk =   0.0046296
        k(  193) = (  -0.3333285  -0.3367905   0.0261124), wk =   0.0046296
        k(  194) = (  -0.3333285  -0.3367929   0.0783060), wk =   0.0046296
        k(  195) = (  -0.3333285  -0.3367952   0.1304997), wk =   0.0046296
        k(  196) = (  -0.3333285  -0.3367976   0.1826934), wk =   0.0046296
        k(  197) = (  -0.3333285  -0.3368000   0.2348870), wk =   0.0046296
        k(  198) = (  -0.3333285  -0.3368024   0.2870807), wk =   0.0046296
        k(  199) = (  -0.3333285  -0.3367762  -0.2870496), wk =   0.0046296
        k(  200) = (  -0.3333285  -0.3367786  -0.2348560), wk =   0.0046296
        k(  201) = (  -0.3333285  -0.3367810  -0.1826623), wk =   0.0046296
        k(  202) = (  -0.3333285  -0.3367833  -0.1304686), wk =   0.0046296
        k(  203) = (  -0.3333285  -0.3367857  -0.0782750), wk =   0.0046296
        k(  204) = (  -0.3333285  -0.3367881  -0.0260813), wk =   0.0046296
        k(  205) = (  -0.2499964  -0.2886777   0.0261101), wk =   0.0046296
        k(  206) = (  -0.2499964  -0.2886801   0.0783038), wk =   0.0046296
        k(  207) = (  -0.2499964  -0.2886825   0.1304975), wk =   0.0046296
        k(  208) = (  -0.2499964  -0.2886849   0.1826911), wk =   0.0046296
        k(  209) = (  -0.2499964  -0.2886872   0.2348848), wk =   0.0046296
        k(  210) = (  -0.2499964  -0.2886896   0.2870785), wk =   0.0046296
        k(  211) = (  -0.2499964  -0.2886635  -0.2870519), wk =   0.0046296
        k(  212) = (  -0.2499964  -0.2886658  -0.2348582), wk =   0.0046296
        k(  213) = (  -0.2499964  -0.2886682  -0.1826645), wk =   0.0046296
        k(  214) = (  -0.2499964  -0.2886706  -0.1304709), wk =   0.0046296
        k(  215) = (  -0.2499964  -0.2886730  -0.0782772), wk =   0.0046296
        k(  216) = (  -0.2499964  -0.2886753  -0.0260835), wk =   0.0046296
        k(  217) = (  -0.1666642  -0.2405650   0.0261079), wk =   0.0046296
        k(  218) = (  -0.1666642  -0.2405673   0.0783016), wk =   0.0046296
        k(  219) = (  -0.1666642  -0.2405697   0.1304953), wk =   0.0046296
        k(  220) = (  -0.1666642  -0.2405721   0.1826889), wk =   0.0046296
        k(  221) = (  -0.1666642  -0.2405745   0.2348826), wk =   0.0046296
        k(  222) = (  -0.1666642  -0.2405769   0.2870762), wk =   0.0046296
        k(  223) = (  -0.1666642  -0.2405507  -0.2870541), wk =   0.0046296
        k(  224) = (  -0.1666642  -0.2405531  -0.2348604), wk =   0.0046296
        k(  225) = (  -0.1666642  -0.2405555  -0.1826667), wk =   0.0046296
        k(  226) = (  -0.1666642  -0.2405578  -0.1304731), wk =   0.0046296
        k(  227) = (  -0.1666642  -0.2405602  -0.0782794), wk =   0.0046296
        k(  228) = (  -0.1666642  -0.2405626  -0.0260857), wk =   0.0046296
        k(  229) = (  -0.0833321  -0.1924522   0.0261057), wk =   0.0046296
        k(  230) = (  -0.0833321  -0.1924546   0.0782994), wk =   0.0046296
        k(  231) = (  -0.0833321  -0.1924570   0.1304930), wk =   0.0046296
        k(  232) = (  -0.0833321  -0.1924593   0.1826867), wk =   0.0046296
        k(  233) = (  -0.0833321  -0.1924617   0.2348804), wk =   0.0046296
        k(  234) = (  -0.0833321  -0.1924641   0.2870740), wk =   0.0046296
        k(  235) = (  -0.0833321  -0.1924379  -0.2870563), wk =   0.0046296
        k(  236) = (  -0.0833321  -0.1924403  -0.2348626), wk =   0.0046296
        k(  237) = (  -0.0833321  -0.1924427  -0.1826690), wk =   0.0046296
        k(  238) = (  -0.0833321  -0.1924451  -0.1304753), wk =   0.0046296
        k(  239) = (  -0.0833321  -0.1924475  -0.0782816), wk =   0.0046296
        k(  240) = (  -0.0833321  -0.1924498  -0.0260880), wk =   0.0046296
        k(  241) = (   0.0000000  -0.1443395   0.0261035), wk =   0.0023148
        k(  242) = (   0.0000000  -0.1443418   0.0782972), wk =   0.0023148
        k(  243) = (   0.0000000  -0.1443442   0.1304908), wk =   0.0023148
        k(  244) = (   0.0000000  -0.1443466   0.1826845), wk =   0.0023148
        k(  245) = (   0.0000000  -0.1443490   0.2348781), wk =   0.0023148
        k(  246) = (   0.0000000  -0.1443513   0.2870718), wk =   0.0023148
        k(  247) = (   0.0000000  -0.1443252  -0.2870585), wk =   0.0023148
        k(  248) = (   0.0000000  -0.1443276  -0.2348648), wk =   0.0023148
        k(  249) = (   0.0000000  -0.1443299  -0.1826712), wk =   0.0023148
        k(  250) = (   0.0000000  -0.1443323  -0.1304775), wk =   0.0023148
        k(  251) = (   0.0000000  -0.1443347  -0.0782838), wk =   0.0023148
        k(  252) = (   0.0000000  -0.1443371  -0.0260902), wk =   0.0023148
        k(  253) = (   0.4166606  -0.0000012   0.0260968), wk =   0.0046296
        k(  254) = (   0.4166606  -0.0000036   0.0782905), wk =   0.0046296
        k(  255) = (   0.4166606  -0.0000059   0.1304842), wk =   0.0046296
        k(  256) = (   0.4166606  -0.0000083   0.1826778), wk =   0.0046296
        k(  257) = (   0.4166606  -0.0000107   0.2348715), wk =   0.0046296
        k(  258) = (   0.4166606  -0.0000131   0.2870652), wk =   0.0046296
        k(  259) = (   0.4999927   0.0481116   0.0260946), wk =   0.0046296
        k(  260) = (   0.4999927   0.0481092   0.0782883), wk =   0.0046296
        k(  261) = (   0.4999927   0.0481068   0.1304819), wk =   0.0046296
        k(  262) = (   0.4999927   0.0481044   0.1826756), wk =   0.0046296
        k(  263) = (   0.4999927   0.0481021   0.2348693), wk =   0.0046296
        k(  264) = (   0.4999927   0.0480997   0.2870629), wk =   0.0046296
        k(  265) = (   0.4999927   0.0481258  -0.2870674), wk =   0.0046296
        k(  266) = (   0.4999927   0.0481235  -0.2348737), wk =   0.0046296
        k(  267) = (   0.4999927   0.0481211  -0.1826800), wk =   0.0046296
        k(  268) = (   0.4999927   0.0481187  -0.1304864), wk =   0.0046296
        k(  269) = (   0.4999927   0.0481163  -0.0782927), wk =   0.0046296
        k(  270) = (   0.4999927   0.0481139  -0.0260991), wk =   0.0046296
        k(  271) = (   0.5833249   0.0962243   0.0260924), wk =   0.0046296
        k(  272) = (   0.5833249   0.0962219   0.0782861), wk =   0.0046296
        k(  273) = (   0.5833249   0.0962196   0.1304797), wk =   0.0046296
        k(  274) = (   0.5833249   0.0962172   0.1826734), wk =   0.0046296
        k(  275) = (   0.5833249   0.0962148   0.2348671), wk =   0.0046296
        k(  276) = (   0.5833249   0.0962124   0.2870607), wk =   0.0046296
        k(  277) = (   0.5833249   0.0962386  -0.2870696), wk =   0.0046296
        k(  278) = (   0.5833249   0.0962362  -0.2348759), wk =   0.0046296
        k(  279) = (   0.5833249   0.0962338  -0.1826823), wk =   0.0046296
        k(  280) = (   0.5833249   0.0962315  -0.1304886), wk =   0.0046296
        k(  281) = (   0.5833249   0.0962291  -0.0782949), wk =   0.0046296
        k(  282) = (   0.5833249   0.0962267  -0.0261013), wk =   0.0046296
        k(  283) = (   0.6666570   0.1443371   0.0260902), wk =   0.0046296
        k(  284) = (   0.6666570   0.1443347   0.0782838), wk =   0.0046296
        k(  285) = (   0.6666570   0.1443323   0.1304775), wk =   0.0046296
        k(  286) = (   0.6666570   0.1443299   0.1826712), wk =   0.0046296
        k(  287) = (   0.6666570   0.1443276   0.2348648), wk =   0.0046296
        k(  288) = (   0.6666570   0.1443252   0.2870585), wk =   0.0046296
        k(  289) = (   0.6666570   0.1443513  -0.2870718), wk =   0.0046296
        k(  290) = (   0.6666570   0.1443490  -0.2348781), wk =   0.0046296
        k(  291) = (   0.6666570   0.1443466  -0.1826845), wk =   0.0046296
        k(  292) = (   0.6666570   0.1443442  -0.1304908), wk =   0.0046296
        k(  293) = (   0.6666570   0.1443418  -0.0782972), wk =   0.0046296
        k(  294) = (   0.6666570   0.1443395  -0.0261035), wk =   0.0046296
        k(  295) = (  -0.2499964  -0.3849032   0.0261146), wk =   0.0046296
        k(  296) = (  -0.2499964  -0.3849056   0.0783082), wk =   0.0046296
        k(  297) = (  -0.2499964  -0.3849080   0.1305019), wk =   0.0046296
        k(  298) = (  -0.2499964  -0.3849104   0.1826956), wk =   0.0046296
        k(  299) = (  -0.2499964  -0.3849127   0.2348892), wk =   0.0046296
        k(  300) = (  -0.2499964  -0.3849151   0.2870829), wk =   0.0046296
        k(  301) = (  -0.2499964  -0.3848890  -0.2870474), wk =   0.0046296
        k(  302) = (  -0.2499964  -0.3848913  -0.2348538), wk =   0.0046296
        k(  303) = (  -0.2499964  -0.3848937  -0.1826601), wk =   0.0046296
        k(  304) = (  -0.2499964  -0.3848961  -0.1304664), wk =   0.0046296
        k(  305) = (  -0.2499964  -0.3848985  -0.0782728), wk =   0.0046296
        k(  306) = (  -0.2499964  -0.3849009  -0.0260791), wk =   0.0046296
        k(  307) = (  -0.1666642  -0.3367905   0.0261124), wk =   0.0046296
        k(  308) = (  -0.1666642  -0.3367929   0.0783060), wk =   0.0046296
        k(  309) = (  -0.1666642  -0.3367952   0.1304997), wk =   0.0046296
        k(  310) = (  -0.1666642  -0.3367976   0.1826934), wk =   0.0046296
        k(  311) = (  -0.1666642  -0.3368000   0.2348870), wk =   0.0046296
        k(  312) = (  -0.1666642  -0.3368024   0.2870807), wk =   0.0046296
        k(  313) = (  -0.1666642  -0.3367762  -0.2870496), wk =   0.0046296
        k(  314) = (  -0.1666642  -0.3367786  -0.2348560), wk =   0.0046296
        k(  315) = (  -0.1666642  -0.3367810  -0.1826623), wk =   0.0046296
        k(  316) = (  -0.1666642  -0.3367833  -0.1304686), wk =   0.0046296
        k(  317) = (  -0.1666642  -0.3367857  -0.0782750), wk =   0.0046296
        k(  318) = (  -0.1666642  -0.3367881  -0.0260813), wk =   0.0046296
        k(  319) = (  -0.0833321  -0.2886777   0.0261101), wk =   0.0046296
        k(  320) = (  -0.0833321  -0.2886801   0.0783038), wk =   0.0046296
        k(  321) = (  -0.0833321  -0.2886825   0.1304975), wk =   0.0046296
        k(  322) = (  -0.0833321  -0.2886849   0.1826911), wk =   0.0046296
        k(  323) = (  -0.0833321  -0.2886872   0.2348848), wk =   0.0046296
        k(  324) = (  -0.0833321  -0.2886896   0.2870785), wk =   0.0046296
        k(  325) = (  -0.0833321  -0.2886635  -0.2870519), wk =   0.0046296
        k(  326) = (  -0.0833321  -0.2886658  -0.2348582), wk =   0.0046296
        k(  327) = (  -0.0833321  -0.2886682  -0.1826645), wk =   0.0046296
        k(  328) = (  -0.0833321  -0.2886706  -0.1304709), wk =   0.0046296
        k(  329) = (  -0.0833321  -0.2886730  -0.0782772), wk =   0.0046296
        k(  330) = (  -0.0833321  -0.2886753  -0.0260835), wk =   0.0046296
        k(  331) = (  -0.0000000  -0.2405650   0.0261079), wk =   0.0023148
        k(  332) = (  -0.0000000  -0.2405673   0.0783016), wk =   0.0023148
        k(  333) = (  -0.0000000  -0.2405697   0.1304953), wk =   0.0023148
        k(  334) = (  -0.0000000  -0.2405721   0.1826889), wk =   0.0023148
        k(  335) = (  -0.0000000  -0.2405745   0.2348826), wk =   0.0023148
        k(  336) = (  -0.0000000  -0.2405769   0.2870762), wk =   0.0023148
        k(  337) = (  -0.0000000  -0.2405507  -0.2870541), wk =   0.0023148
        k(  338) = (  -0.0000000  -0.2405531  -0.2348604), wk =   0.0023148
        k(  339) = (  -0.0000000  -0.2405555  -0.1826667), wk =   0.0023148
        k(  340) = (  -0.0000000  -0.2405578  -0.1304731), wk =   0.0023148
        k(  341) = (  -0.0000000  -0.2405602  -0.0782794), wk =   0.0023148
        k(  342) = (  -0.0000000  -0.2405626  -0.0260857), wk =   0.0023148
        k(  343) = (   0.5833249  -0.0000012   0.0260968), wk =   0.0046296
        k(  344) = (   0.5833249  -0.0000036   0.0782905), wk =   0.0046296
        k(  345) = (   0.5833249  -0.0000059   0.1304842), wk =   0.0046296
        k(  346) = (   0.5833249  -0.0000083   0.1826778), wk =   0.0046296
        k(  347) = (   0.5833249  -0.0000107   0.2348715), wk =   0.0046296
        k(  348) = (   0.5833249  -0.0000131   0.2870652), wk =   0.0046296
        k(  349) = (   0.6666570   0.0481116   0.0260946), wk =   0.0046296
        k(  350) = (   0.6666570   0.0481092   0.0782883), wk =   0.0046296
        k(  351) = (   0.6666570   0.0481068   0.1304819), wk =   0.0046296
        k(  352) = (   0.6666570   0.0481044   0.1826756), wk =   0.0046296
        k(  353) = (   0.6666570   0.0481021   0.2348693), wk =   0.0046296
        k(  354) = (   0.6666570   0.0480997   0.2870629), wk =   0.0046296
        k(  355) = (   0.6666570   0.0481258  -0.2870674), wk =   0.0046296
        k(  356) = (   0.6666570   0.0481235  -0.2348737), wk =   0.0046296
        k(  357) = (   0.6666570   0.0481211  -0.1826800), wk =   0.0046296
        k(  358) = (   0.6666570   0.0481187  -0.1304864), wk =   0.0046296
        k(  359) = (   0.6666570   0.0481163  -0.0782927), wk =   0.0046296
        k(  360) = (   0.6666570   0.0481139  -0.0260991), wk =   0.0046296
        k(  361) = (   0.7499891   0.0962243   0.0260924), wk =   0.0046296
        k(  362) = (   0.7499891   0.0962219   0.0782861), wk =   0.0046296
        k(  363) = (   0.7499891   0.0962196   0.1304797), wk =   0.0046296
        k(  364) = (   0.7499891   0.0962172   0.1826734), wk =   0.0046296
        k(  365) = (   0.7499891   0.0962148   0.2348671), wk =   0.0046296
        k(  366) = (   0.7499891   0.0962124   0.2870607), wk =   0.0046296
        k(  367) = (   0.7499891   0.0962386  -0.2870696), wk =   0.0046296
        k(  368) = (   0.7499891   0.0962362  -0.2348759), wk =   0.0046296
        k(  369) = (   0.7499891   0.0962338  -0.1826823), wk =   0.0046296
        k(  370) = (   0.7499891   0.0962315  -0.1304886), wk =   0.0046296
        k(  371) = (   0.7499891   0.0962291  -0.0782949), wk =   0.0046296
        k(  372) = (   0.7499891   0.0962267  -0.0261013), wk =   0.0046296
        k(  373) = (  -0.1666642  -0.4330160   0.0261168), wk =   0.0046296
        k(  374) = (  -0.1666642  -0.4330184   0.0783105), wk =   0.0046296
        k(  375) = (  -0.1666642  -0.4330207   0.1305041), wk =   0.0046296
        k(  376) = (  -0.1666642  -0.4330231   0.1826978), wk =   0.0046296
        k(  377) = (  -0.1666642  -0.4330255   0.2348915), wk =   0.0046296
        k(  378) = (  -0.1666642  -0.4330279   0.2870851), wk =   0.0046296
        k(  379) = (  -0.1666642  -0.4330017  -0.2870452), wk =   0.0046296
        k(  380) = (  -0.1666642  -0.4330041  -0.2348515), wk =   0.0046296
        k(  381) = (  -0.1666642  -0.4330065  -0.1826579), wk =   0.0046296
        k(  382) = (  -0.1666642  -0.4330089  -0.1304642), wk =   0.0046296
        k(  383) = (  -0.1666642  -0.4330112  -0.0782705), wk =   0.0046296
        k(  384) = (  -0.1666642  -0.4330136  -0.0260769), wk =   0.0046296
        k(  385) = (  -0.0833321  -0.3849032   0.0261146), wk =   0.0046296
        k(  386) = (  -0.0833321  -0.3849056   0.0783082), wk =   0.0046296
        k(  387) = (  -0.0833321  -0.3849080   0.1305019), wk =   0.0046296
        k(  388) = (  -0.0833321  -0.3849104   0.1826956), wk =   0.0046296
        k(  389) = (  -0.0833321  -0.3849127   0.2348892), wk =   0.0046296
        k(  390) = (  -0.0833321  -0.3849151   0.2870829), wk =   0.0046296
        k(  391) = (  -0.0833321  -0.3848890  -0.2870474), wk =   0.0046296
        k(  392) = (  -0.0833321  -0.3848913  -0.2348538), wk =   0.0046296
        k(  393) = (  -0.0833321  -0.3848937  -0.1826601), wk =   0.0046296
        k(  394) = (  -0.0833321  -0.3848961  -0.1304664), wk =   0.0046296
        k(  395) = (  -0.0833321  -0.3848985  -0.0782728), wk =   0.0046296
        k(  396) = (  -0.0833321  -0.3849009  -0.0260791), wk =   0.0046296
        k(  397) = (  -0.0000000  -0.3367905   0.0261124), wk =   0.0023148
        k(  398) = (  -0.0000000  -0.3367929   0.0783060), wk =   0.0023148
        k(  399) = (  -0.0000000  -0.3367952   0.1304997), wk =   0.0023148
        k(  400) = (  -0.0000000  -0.3367976   0.1826934), wk =   0.0023148
        k(  401) = (  -0.0000000  -0.3368000   0.2348870), wk =   0.0023148
        k(  402) = (  -0.0000000  -0.3368024   0.2870807), wk =   0.0023148
        k(  403) = (  -0.0000000  -0.3367762  -0.2870496), wk =   0.0023148
        k(  404) = (  -0.0000000  -0.3367786  -0.2348560), wk =   0.0023148
        k(  405) = (  -0.0000000  -0.3367810  -0.1826623), wk =   0.0023148
        k(  406) = (  -0.0000000  -0.3367833  -0.1304686), wk =   0.0023148
        k(  407) = (  -0.0000000  -0.3367857  -0.0782750), wk =   0.0023148
        k(  408) = (  -0.0000000  -0.3367881  -0.0260813), wk =   0.0023148
        k(  409) = (   0.7499891  -0.0000012   0.0260968), wk =   0.0046296
        k(  410) = (   0.7499891  -0.0000036   0.0782905), wk =   0.0046296
        k(  411) = (   0.7499891  -0.0000059   0.1304842), wk =   0.0046296
        k(  412) = (   0.7499891  -0.0000083   0.1826778), wk =   0.0046296
        k(  413) = (   0.7499891  -0.0000107   0.2348715), wk =   0.0046296
        k(  414) = (   0.7499891  -0.0000131   0.2870652), wk =   0.0046296
        k(  415) = (   0.8333212   0.0481116   0.0260946), wk =   0.0046296
        k(  416) = (   0.8333212   0.0481092   0.0782883), wk =   0.0046296
        k(  417) = (   0.8333212   0.0481068   0.1304819), wk =   0.0046296
        k(  418) = (   0.8333212   0.0481044   0.1826756), wk =   0.0046296
        k(  419) = (   0.8333212   0.0481021   0.2348693), wk =   0.0046296
        k(  420) = (   0.8333212   0.0480997   0.2870629), wk =   0.0046296
        k(  421) = (   0.8333212   0.0481258  -0.2870674), wk =   0.0046296
        k(  422) = (   0.8333212   0.0481235  -0.2348737), wk =   0.0046296
        k(  423) = (   0.8333212   0.0481211  -0.1826800), wk =   0.0046296
        k(  424) = (   0.8333212   0.0481187  -0.1304864), wk =   0.0046296
        k(  425) = (   0.8333212   0.0481163  -0.0782927), wk =   0.0046296
        k(  426) = (   0.8333212   0.0481139  -0.0260991), wk =   0.0046296
        k(  427) = (  -0.0833321  -0.4811287   0.0261190), wk =   0.0046296
        k(  428) = (  -0.0833321  -0.4811311   0.0783127), wk =   0.0046296
        k(  429) = (  -0.0833321  -0.4811335   0.1305063), wk =   0.0046296
        k(  430) = (  -0.0833321  -0.4811359   0.1827000), wk =   0.0046296
        k(  431) = (  -0.0833321  -0.4811383   0.2348937), wk =   0.0046296
        k(  432) = (  -0.0833321  -0.4811406   0.2870873), wk =   0.0046296
        k(  433) = (  -0.0833321  -0.4811145  -0.2870430), wk =   0.0046296
        k(  434) = (  -0.0833321  -0.4811169  -0.2348493), wk =   0.0046296
        k(  435) = (  -0.0833321  -0.4811192  -0.1826557), wk =   0.0046296
        k(  436) = (  -0.0833321  -0.4811216  -0.1304620), wk =   0.0046296
        k(  437) = (  -0.0833321  -0.4811240  -0.0782683), wk =   0.0046296
        k(  438) = (  -0.0833321  -0.4811264  -0.0260747), wk =   0.0046296
        k(  439) = (   0.0000000  -0.4330160   0.0261168), wk =   0.0023148
        k(  440) = (   0.0000000  -0.4330184   0.0783105), wk =   0.0023148
        k(  441) = (   0.0000000  -0.4330207   0.1305041), wk =   0.0023148
        k(  442) = (   0.0000000  -0.4330231   0.1826978), wk =   0.0023148
        k(  443) = (   0.0000000  -0.4330255   0.2348915), wk =   0.0023148
        k(  444) = (   0.0000000  -0.4330279   0.2870851), wk =   0.0023148
        k(  445) = (   0.0000000  -0.4330017  -0.2870452), wk =   0.0023148
        k(  446) = (   0.0000000  -0.4330041  -0.2348515), wk =   0.0023148
        k(  447) = (   0.0000000  -0.4330065  -0.1826579), wk =   0.0023148
        k(  448) = (   0.0000000  -0.4330089  -0.1304642), wk =   0.0023148
        k(  449) = (   0.0000000  -0.4330112  -0.0782705), wk =   0.0023148
        k(  450) = (   0.0000000  -0.4330136  -0.0260769), wk =   0.0023148
        k(  451) = (   0.9166534  -0.0000012   0.0260968), wk =   0.0046296
        k(  452) = (   0.9166534  -0.0000036   0.0782905), wk =   0.0046296
        k(  453) = (   0.9166534  -0.0000059   0.1304842), wk =   0.0046296
        k(  454) = (   0.9166534  -0.0000083   0.1826778), wk =   0.0046296
        k(  455) = (   0.9166534  -0.0000107   0.2348715), wk =   0.0046296
        k(  456) = (   0.9166534  -0.0000131   0.2870652), wk =   0.0046296
        k(  457) = (   0.0000000  -0.5292415   0.0261212), wk =   0.0023148
        k(  458) = (   0.0000000  -0.5292439   0.0783149), wk =   0.0023148
        k(  459) = (   0.0000000  -0.5292463   0.1305086), wk =   0.0023148
        k(  460) = (   0.0000000  -0.5292486   0.1827022), wk =   0.0023148
        k(  461) = (   0.0000000  -0.5292510   0.2348959), wk =   0.0023148
        k(  462) = (   0.0000000  -0.5292534   0.2870896), wk =   0.0023148
        k(  463) = (   0.0000000  -0.5292272  -0.2870408), wk =   0.0023148
        k(  464) = (   0.0000000  -0.5292296  -0.2348471), wk =   0.0023148
        k(  465) = (   0.0000000  -0.5292320  -0.1826534), wk =   0.0023148
        k(  466) = (   0.0000000  -0.5292344  -0.1304598), wk =   0.0023148
        k(  467) = (   0.0000000  -0.5292367  -0.0782661), wk =   0.0023148
        k(  468) = (   0.0000000  -0.5292391  -0.0260724), wk =   0.0023148

                       cryst. coord.
        k(    1) = (   0.0416667   0.0416667   0.0416667), wk =   0.0046296
        k(    2) = (   0.0416667   0.0416667   0.1250000), wk =   0.0046296
        k(    3) = (   0.0416667   0.0416667   0.2083333), wk =   0.0046296
        k(    4) = (   0.0416667   0.0416667   0.2916667), wk =   0.0046296
        k(    5) = (   0.0416667   0.0416667   0.3750000), wk =   0.0046296
        k(    6) = (   0.0416667   0.0416667   0.4583333), wk =   0.0046296
        k(    7) = (   0.0416667   0.1250000   0.0416667), wk =   0.0046296
        k(    8) = (   0.0416667   0.1250000   0.1250000), wk =   0.0046296
        k(    9) = (   0.0416667   0.1250000   0.2083333), wk =   0.0046296
        k(   10) = (   0.0416667   0.1250000   0.2916667), wk =   0.0046296
        k(   11) = (   0.0416667   0.1250000   0.3750000), wk =   0.0046296
        k(   12) = (   0.0416667   0.1250000   0.4583333), wk =   0.0046296
        k(   13) = (   0.0416667   0.1250000  -0.4583333), wk =   0.0046296
        k(   14) = (   0.0416667   0.1250000  -0.3750000), wk =   0.0046296
        k(   15) = (   0.0416667   0.1250000  -0.2916667), wk =   0.0046296
        k(   16) = (   0.0416667   0.1250000  -0.2083333), wk =   0.0046296
        k(   17) = (   0.0416667   0.1250000  -0.1250000), wk =   0.0046296
        k(   18) = (   0.0416667   0.1250000  -0.0416667), wk =   0.0046296
        k(   19) = (   0.0416667   0.2083333   0.0416667), wk =   0.0046296
        k(   20) = (   0.0416667   0.2083333   0.1250000), wk =   0.0046296
        k(   21) = (   0.0416667   0.2083333   0.2083333), wk =   0.0046296
        k(   22) = (   0.0416667   0.2083333   0.2916667), wk =   0.0046296
        k(   23) = (   0.0416667   0.2083333   0.3750000), wk =   0.0046296
        k(   24) = (   0.0416667   0.2083333   0.4583333), wk =   0.0046296
        k(   25) = (   0.0416667   0.2083333  -0.4583333), wk =   0.0046296
        k(   26) = (   0.0416667   0.2083333  -0.3750000), wk =   0.0046296
        k(   27) = (   0.0416667   0.2083333  -0.2916667), wk =   0.0046296
        k(   28) = (   0.0416667   0.2083333  -0.2083333), wk =   0.0046296
        k(   29) = (   0.0416667   0.2083333  -0.1250000), wk =   0.0046296
        k(   30) = (   0.0416667   0.2083333  -0.0416667), wk =   0.0046296
        k(   31) = (   0.0416667   0.2916667   0.0416667), wk =   0.0046296
        k(   32) = (   0.0416667   0.2916667   0.1250000), wk =   0.0046296
        k(   33) = (   0.0416667   0.2916667   0.2083333), wk =   0.0046296
        k(   34) = (   0.0416667   0.2916667   0.2916667), wk =   0.0046296
        k(   35) = (   0.0416667   0.2916667   0.3750000), wk =   0.0046296
        k(   36) = (   0.0416667   0.2916667   0.4583333), wk =   0.0046296
        k(   37) = (   0.0416667   0.2916667  -0.4583333), wk =   0.0046296
        k(   38) = (   0.0416667   0.2916667  -0.3750000), wk =   0.0046296
        k(   39) = (   0.0416667   0.2916667  -0.2916667), wk =   0.0046296
        k(   40) = (   0.0416667   0.2916667  -0.2083333), wk =   0.0046296
        k(   41) = (   0.0416667   0.2916667  -0.1250000), wk =   0.0046296
        k(   42) = (   0.0416667   0.2916667  -0.0416667), wk =   0.0046296
        k(   43) = (   0.0416667   0.3750000   0.0416667), wk =   0.0046296
        k(   44) = (   0.0416667   0.3750000   0.1250000), wk =   0.0046296
        k(   45) = (   0.0416667   0.3750000   0.2083333), wk =   0.0046296
        k(   46) = (   0.0416667   0.3750000   0.2916667), wk =   0.0046296
        k(   47) = (   0.0416667   0.3750000   0.3750000), wk =   0.0046296
        k(   48) = (   0.0416667   0.3750000   0.4583333), wk =   0.0046296
        k(   49) = (   0.0416667   0.3750000  -0.4583333), wk =   0.0046296
        k(   50) = (   0.0416667   0.3750000  -0.3750000), wk =   0.0046296
        k(   51) = (   0.0416667   0.3750000  -0.2916667), wk =   0.0046296
        k(   52) = (   0.0416667   0.3750000  -0.2083333), wk =   0.0046296
        k(   53) = (   0.0416667   0.3750000  -0.1250000), wk =   0.0046296
        k(   54) = (   0.0416667   0.3750000  -0.0416667), wk =   0.0046296
        k(   55) = (   0.0416667   0.4583333   0.0416667), wk =   0.0046296
        k(   56) = (   0.0416667   0.4583333   0.1250000), wk =   0.0046296
        k(   57) = (   0.0416667   0.4583333   0.2083333), wk =   0.0046296
        k(   58) = (   0.0416667   0.4583333   0.2916667), wk =   0.0046296
        k(   59) = (   0.0416667   0.4583333   0.3750000), wk =   0.0046296
        k(   60) = (   0.0416667   0.4583333   0.4583333), wk =   0.0046296
        k(   61) = (   0.0416667   0.4583333  -0.4583333), wk =   0.0046296
        k(   62) = (   0.0416667   0.4583333  -0.3750000), wk =   0.0046296
        k(   63) = (   0.0416667   0.4583333  -0.2916667), wk =   0.0046296
        k(   64) = (   0.0416667   0.4583333  -0.2083333), wk =   0.0046296
        k(   65) = (   0.0416667   0.4583333  -0.1250000), wk =   0.0046296
        k(   66) = (   0.0416667   0.4583333  -0.0416667), wk =   0.0046296
        k(   67) = (   0.0416667  -0.4583333   0.0416667), wk =   0.0046296
        k(   68) = (   0.0416667  -0.4583333   0.1250000), wk =   0.0046296
        k(   69) = (   0.0416667  -0.4583333   0.2083333), wk =   0.0046296
        k(   70) = (   0.0416667  -0.4583333   0.2916667), wk =   0.0046296
        k(   71) = (   0.0416667  -0.4583333   0.3750000), wk =   0.0046296
        k(   72) = (   0.0416667  -0.4583333   0.4583333), wk =   0.0046296
        k(   73) = (   0.0416667  -0.4583333  -0.4583333), wk =   0.0046296
        k(   74) = (   0.0416667  -0.4583333  -0.3750000), wk =   0.0046296
        k(   75) = (   0.0416667  -0.4583333  -0.2916667), wk =   0.0046296
        k(   76) = (   0.0416667  -0.4583333  -0.2083333), wk =   0.0046296
        k(   77) = (   0.0416667  -0.4583333  -0.1250000), wk =   0.0046296
        k(   78) = (   0.0416667  -0.4583333  -0.0416667), wk =   0.0046296
        k(   79) = (   0.0416667  -0.3750000   0.0416667), wk =   0.0046296
        k(   80) = (   0.0416667  -0.3750000   0.1250000), wk =   0.0046296
        k(   81) = (   0.0416667  -0.3750000   0.2083333), wk =   0.0046296
        k(   82) = (   0.0416667  -0.3750000   0.2916667), wk =   0.0046296
        k(   83) = (   0.0416667  -0.3750000   0.3750000), wk =   0.0046296
        k(   84) = (   0.0416667  -0.3750000   0.4583333), wk =   0.0046296
        k(   85) = (   0.0416667  -0.3750000  -0.4583333), wk =   0.0046296
        k(   86) = (   0.0416667  -0.3750000  -0.3750000), wk =   0.0046296
        k(   87) = (   0.0416667  -0.3750000  -0.2916667), wk =   0.0046296
        k(   88) = (   0.0416667  -0.3750000  -0.2083333), wk =   0.0046296
        k(   89) = (   0.0416667  -0.3750000  -0.1250000), wk =   0.0046296
        k(   90) = (   0.0416667  -0.3750000  -0.0416667), wk =   0.0046296
        k(   91) = (   0.0416667  -0.2916667   0.0416667), wk =   0.0046296
        k(   92) = (   0.0416667  -0.2916667   0.1250000), wk =   0.0046296
        k(   93) = (   0.0416667  -0.2916667   0.2083333), wk =   0.0046296
        k(   94) = (   0.0416667  -0.2916667   0.2916667), wk =   0.0046296
        k(   95) = (   0.0416667  -0.2916667   0.3750000), wk =   0.0046296
        k(   96) = (   0.0416667  -0.2916667   0.4583333), wk =   0.0046296
        k(   97) = (   0.0416667  -0.2916667  -0.4583333), wk =   0.0046296
        k(   98) = (   0.0416667  -0.2916667  -0.3750000), wk =   0.0046296
        k(   99) = (   0.0416667  -0.2916667  -0.2916667), wk =   0.0046296
        k(  100) = (   0.0416667  -0.2916667  -0.2083333), wk =   0.0046296
        k(  101) = (   0.0416667  -0.2916667  -0.1250000), wk =   0.0046296
        k(  102) = (   0.0416667  -0.2916667  -0.0416667), wk =   0.0046296
        k(  103) = (   0.0416667  -0.2083333   0.0416667), wk =   0.0046296
        k(  104) = (   0.0416667  -0.2083333   0.1250000), wk =   0.0046296
        k(  105) = (   0.0416667  -0.2083333   0.2083333), wk =   0.0046296
        k(  106) = (   0.0416667  -0.2083333   0.2916667), wk =   0.0046296
        k(  107) = (   0.0416667  -0.2083333   0.3750000), wk =   0.0046296
        k(  108) = (   0.0416667  -0.2083333   0.4583333), wk =   0.0046296
        k(  109) = (   0.0416667  -0.2083333  -0.4583333), wk =   0.0046296
        k(  110) = (   0.0416667  -0.2083333  -0.3750000), wk =   0.0046296
        k(  111) = (   0.0416667  -0.2083333  -0.2916667), wk =   0.0046296
        k(  112) = (   0.0416667  -0.2083333  -0.2083333), wk =   0.0046296
        k(  113) = (   0.0416667  -0.2083333  -0.1250000), wk =   0.0046296
        k(  114) = (   0.0416667  -0.2083333  -0.0416667), wk =   0.0046296
        k(  115) = (   0.0416667  -0.1250000   0.0416667), wk =   0.0046296
        k(  116) = (   0.0416667  -0.1250000   0.1250000), wk =   0.0046296
        k(  117) = (   0.0416667  -0.1250000   0.2083333), wk =   0.0046296
        k(  118) = (   0.0416667  -0.1250000   0.2916667), wk =   0.0046296
        k(  119) = (   0.0416667  -0.1250000   0.3750000), wk =   0.0046296
        k(  120) = (   0.0416667  -0.1250000   0.4583333), wk =   0.0046296
        k(  121) = (   0.0416667  -0.1250000  -0.4583333), wk =   0.0046296
        k(  122) = (   0.0416667  -0.1250000  -0.3750000), wk =   0.0046296
        k(  123) = (   0.0416667  -0.1250000  -0.2916667), wk =   0.0046296
        k(  124) = (   0.0416667  -0.1250000  -0.2083333), wk =   0.0046296
        k(  125) = (   0.0416667  -0.1250000  -0.1250000), wk =   0.0046296
        k(  126) = (   0.0416667  -0.1250000  -0.0416667), wk =   0.0046296
        k(  127) = (   0.0416667  -0.0416667   0.0416667), wk =   0.0023148
        k(  128) = (   0.0416667  -0.0416667   0.1250000), wk =   0.0023148
        k(  129) = (   0.0416667  -0.0416667   0.2083333), wk =   0.0023148
        k(  130) = (   0.0416667  -0.0416667   0.2916667), wk =   0.0023148
        k(  131) = (   0.0416667  -0.0416667   0.3750000), wk =   0.0023148
        k(  132) = (   0.0416667  -0.0416667   0.4583333), wk =   0.0023148
        k(  133) = (   0.0416667  -0.0416667  -0.4583333), wk =   0.0023148
        k(  134) = (   0.0416667  -0.0416667  -0.3750000), wk =   0.0023148
        k(  135) = (   0.0416667  -0.0416667  -0.2916667), wk =   0.0023148
        k(  136) = (   0.0416667  -0.0416667  -0.2083333), wk =   0.0023148
        k(  137) = (   0.0416667  -0.0416667  -0.1250000), wk =   0.0023148
        k(  138) = (   0.0416667  -0.0416667  -0.0416667), wk =   0.0023148
        k(  139) = (   0.1250000   0.1250000   0.0416667), wk =   0.0046296
        k(  140) = (   0.1250000   0.1250000   0.1250000), wk =   0.0046296
        k(  141) = (   0.1250000   0.1250000   0.2083333), wk =   0.0046296
        k(  142) = (   0.1250000   0.1250000   0.2916667), wk =   0.0046296
        k(  143) = (   0.1250000   0.1250000   0.3750000), wk =   0.0046296
        k(  144) = (   0.1250000   0.1250000   0.4583333), wk =   0.0046296
        k(  145) = (   0.1250000   0.2083333   0.0416667), wk =   0.0046296
        k(  146) = (   0.1250000   0.2083333   0.1250000), wk =   0.0046296
        k(  147) = (   0.1250000   0.2083333   0.2083333), wk =   0.0046296
        k(  148) = (   0.1250000   0.2083333   0.2916667), wk =   0.0046296
        k(  149) = (   0.1250000   0.2083333   0.3750000), wk =   0.0046296
        k(  150) = (   0.1250000   0.2083333   0.4583333), wk =   0.0046296
        k(  151) = (   0.1250000   0.2083333  -0.4583333), wk =   0.0046296
        k(  152) = (   0.1250000   0.2083333  -0.3750000), wk =   0.0046296
        k(  153) = (   0.1250000   0.2083333  -0.2916667), wk =   0.0046296
        k(  154) = (   0.1250000   0.2083333  -0.2083333), wk =   0.0046296
        k(  155) = (   0.1250000   0.2083333  -0.1250000), wk =   0.0046296
        k(  156) = (   0.1250000   0.2083333  -0.0416667), wk =   0.0046296
        k(  157) = (   0.1250000   0.2916667   0.0416667), wk =   0.0046296
        k(  158) = (   0.1250000   0.2916667   0.1250000), wk =   0.0046296
        k(  159) = (   0.1250000   0.2916667   0.2083333), wk =   0.0046296
        k(  160) = (   0.1250000   0.2916667   0.2916667), wk =   0.0046296
        k(  161) = (   0.1250000   0.2916667   0.3750000), wk =   0.0046296
        k(  162) = (   0.1250000   0.2916667   0.4583333), wk =   0.0046296
        k(  163) = (   0.1250000   0.2916667  -0.4583333), wk =   0.0046296
        k(  164) = (   0.1250000   0.2916667  -0.3750000), wk =   0.0046296
        k(  165) = (   0.1250000   0.2916667  -0.2916667), wk =   0.0046296
        k(  166) = (   0.1250000   0.2916667  -0.2083333), wk =   0.0046296
        k(  167) = (   0.1250000   0.2916667  -0.1250000), wk =   0.0046296
        k(  168) = (   0.1250000   0.2916667  -0.0416667), wk =   0.0046296
        k(  169) = (   0.1250000   0.3750000   0.0416667), wk =   0.0046296
        k(  170) = (   0.1250000   0.3750000   0.1250000), wk =   0.0046296
        k(  171) = (   0.1250000   0.3750000   0.2083333), wk =   0.0046296
        k(  172) = (   0.1250000   0.3750000   0.2916667), wk =   0.0046296
        k(  173) = (   0.1250000   0.3750000   0.3750000), wk =   0.0046296
        k(  174) = (   0.1250000   0.3750000   0.4583333), wk =   0.0046296
        k(  175) = (   0.1250000   0.3750000  -0.4583333), wk =   0.0046296
        k(  176) = (   0.1250000   0.3750000  -0.3750000), wk =   0.0046296
        k(  177) = (   0.1250000   0.3750000  -0.2916667), wk =   0.0046296
        k(  178) = (   0.1250000   0.3750000  -0.2083333), wk =   0.0046296
        k(  179) = (   0.1250000   0.3750000  -0.1250000), wk =   0.0046296
        k(  180) = (   0.1250000   0.3750000  -0.0416667), wk =   0.0046296
        k(  181) = (   0.1250000   0.4583333   0.0416667), wk =   0.0046296
        k(  182) = (   0.1250000   0.4583333   0.1250000), wk =   0.0046296
        k(  183) = (   0.1250000   0.4583333   0.2083333), wk =   0.0046296
        k(  184) = (   0.1250000   0.4583333   0.2916667), wk =   0.0046296
        k(  185) = (   0.1250000   0.4583333   0.3750000), wk =   0.0046296
        k(  186) = (   0.1250000   0.4583333   0.4583333), wk =   0.0046296
        k(  187) = (   0.1250000   0.4583333  -0.4583333), wk =   0.0046296
        k(  188) = (   0.1250000   0.4583333  -0.3750000), wk =   0.0046296
        k(  189) = (   0.1250000   0.4583333  -0.2916667), wk =   0.0046296
        k(  190) = (   0.1250000   0.4583333  -0.2083333), wk =   0.0046296
        k(  191) = (   0.1250000   0.4583333  -0.1250000), wk =   0.0046296
        k(  192) = (   0.1250000   0.4583333  -0.0416667), wk =   0.0046296
        k(  193) = (   0.1250000  -0.4583333   0.0416667), wk =   0.0046296
        k(  194) = (   0.1250000  -0.4583333   0.1250000), wk =   0.0046296
        k(  195) = (   0.1250000  -0.4583333   0.2083333), wk =   0.0046296
        k(  196) = (   0.1250000  -0.4583333   0.2916667), wk =   0.0046296
        k(  197) = (   0.1250000  -0.4583333   0.3750000), wk =   0.0046296
        k(  198) = (   0.1250000  -0.4583333   0.4583333), wk =   0.0046296
        k(  199) = (   0.1250000  -0.4583333  -0.4583333), wk =   0.0046296
        k(  200) = (   0.1250000  -0.4583333  -0.3750000), wk =   0.0046296
        k(  201) = (   0.1250000  -0.4583333  -0.2916667), wk =   0.0046296
        k(  202) = (   0.1250000  -0.4583333  -0.2083333), wk =   0.0046296
        k(  203) = (   0.1250000  -0.4583333  -0.1250000), wk =   0.0046296
        k(  204) = (   0.1250000  -0.4583333  -0.0416667), wk =   0.0046296
        k(  205) = (   0.1250000  -0.3750000   0.0416667), wk =   0.0046296
        k(  206) = (   0.1250000  -0.3750000   0.1250000), wk =   0.0046296
        k(  207) = (   0.1250000  -0.3750000   0.2083333), wk =   0.0046296
        k(  208) = (   0.1250000  -0.3750000   0.2916667), wk =   0.0046296
        k(  209) = (   0.1250000  -0.3750000   0.3750000), wk =   0.0046296
        k(  210) = (   0.1250000  -0.3750000   0.4583333), wk =   0.0046296
        k(  211) = (   0.1250000  -0.3750000  -0.4583333), wk =   0.0046296
        k(  212) = (   0.1250000  -0.3750000  -0.3750000), wk =   0.0046296
        k(  213) = (   0.1250000  -0.3750000  -0.2916667), wk =   0.0046296
        k(  214) = (   0.1250000  -0.3750000  -0.2083333), wk =   0.0046296
        k(  215) = (   0.1250000  -0.3750000  -0.1250000), wk =   0.0046296
        k(  216) = (   0.1250000  -0.3750000  -0.0416667), wk =   0.0046296
        k(  217) = (   0.1250000  -0.2916667   0.0416667), wk =   0.0046296
        k(  218) = (   0.1250000  -0.2916667   0.1250000), wk =   0.0046296
        k(  219) = (   0.1250000  -0.2916667   0.2083333), wk =   0.0046296
        k(  220) = (   0.1250000  -0.2916667   0.2916667), wk =   0.0046296
        k(  221) = (   0.1250000  -0.2916667   0.3750000), wk =   0.0046296
        k(  222) = (   0.1250000  -0.2916667   0.4583333), wk =   0.0046296
        k(  223) = (   0.1250000  -0.2916667  -0.4583333), wk =   0.0046296
        k(  224) = (   0.1250000  -0.2916667  -0.3750000), wk =   0.0046296
        k(  225) = (   0.1250000  -0.2916667  -0.2916667), wk =   0.0046296
        k(  226) = (   0.1250000  -0.2916667  -0.2083333), wk =   0.0046296
        k(  227) = (   0.1250000  -0.2916667  -0.1250000), wk =   0.0046296
        k(  228) = (   0.1250000  -0.2916667  -0.0416667), wk =   0.0046296
        k(  229) = (   0.1250000  -0.2083333   0.0416667), wk =   0.0046296
        k(  230) = (   0.1250000  -0.2083333   0.1250000), wk =   0.0046296
        k(  231) = (   0.1250000  -0.2083333   0.2083333), wk =   0.0046296
        k(  232) = (   0.1250000  -0.2083333   0.2916667), wk =   0.0046296
        k(  233) = (   0.1250000  -0.2083333   0.3750000), wk =   0.0046296
        k(  234) = (   0.1250000  -0.2083333   0.4583333), wk =   0.0046296
        k(  235) = (   0.1250000  -0.2083333  -0.4583333), wk =   0.0046296
        k(  236) = (   0.1250000  -0.2083333  -0.3750000), wk =   0.0046296
        k(  237) = (   0.1250000  -0.2083333  -0.2916667), wk =   0.0046296
        k(  238) = (   0.1250000  -0.2083333  -0.2083333), wk =   0.0046296
        k(  239) = (   0.1250000  -0.2083333  -0.1250000), wk =   0.0046296
        k(  240) = (   0.1250000  -0.2083333  -0.0416667), wk =   0.0046296
        k(  241) = (   0.1250000  -0.1250000   0.0416667), wk =   0.0023148
        k(  242) = (   0.1250000  -0.1250000   0.1250000), wk =   0.0023148
        k(  243) = (   0.1250000  -0.1250000   0.2083333), wk =   0.0023148
        k(  244) = (   0.1250000  -0.1250000   0.2916667), wk =   0.0023148
        k(  245) = (   0.1250000  -0.1250000   0.3750000), wk =   0.0023148
        k(  246) = (   0.1250000  -0.1250000   0.4583333), wk =   0.0023148
        k(  247) = (   0.1250000  -0.1250000  -0.4583333), wk =   0.0023148
        k(  248) = (   0.1250000  -0.1250000  -0.3750000), wk =   0.0023148
        k(  249) = (   0.1250000  -0.1250000  -0.2916667), wk =   0.0023148
        k(  250) = (   0.1250000  -0.1250000  -0.2083333), wk =   0.0023148
        k(  251) = (   0.1250000  -0.1250000  -0.1250000), wk =   0.0023148
        k(  252) = (   0.1250000  -0.1250000  -0.0416667), wk =   0.0023148
        k(  253) = (   0.2083333   0.2083333   0.0416667), wk =   0.0046296
        k(  254) = (   0.2083333   0.2083333   0.1250000), wk =   0.0046296
        k(  255) = (   0.2083333   0.2083333   0.2083333), wk =   0.0046296
        k(  256) = (   0.2083333   0.2083333   0.2916667), wk =   0.0046296
        k(  257) = (   0.2083333   0.2083333   0.3750000), wk =   0.0046296
        k(  258) = (   0.2083333   0.2083333   0.4583333), wk =   0.0046296
        k(  259) = (   0.2083333   0.2916667   0.0416667), wk =   0.0046296
        k(  260) = (   0.2083333   0.2916667   0.1250000), wk =   0.0046296
        k(  261) = (   0.2083333   0.2916667   0.2083333), wk =   0.0046296
        k(  262) = (   0.2083333   0.2916667   0.2916667), wk =   0.0046296
        k(  263) = (   0.2083333   0.2916667   0.3750000), wk =   0.0046296
        k(  264) = (   0.2083333   0.2916667   0.4583333), wk =   0.0046296
        k(  265) = (   0.2083333   0.2916667  -0.4583333), wk =   0.0046296
        k(  266) = (   0.2083333   0.2916667  -0.3750000), wk =   0.0046296
        k(  267) = (   0.2083333   0.2916667  -0.2916667), wk =   0.0046296
        k(  268) = (   0.2083333   0.2916667  -0.2083333), wk =   0.0046296
        k(  269) = (   0.2083333   0.2916667  -0.1250000), wk =   0.0046296
        k(  270) = (   0.2083333   0.2916667  -0.0416667), wk =   0.0046296
        k(  271) = (   0.2083333   0.3750000   0.0416667), wk =   0.0046296
        k(  272) = (   0.2083333   0.3750000   0.1250000), wk =   0.0046296
        k(  273) = (   0.2083333   0.3750000   0.2083333), wk =   0.0046296
        k(  274) = (   0.2083333   0.3750000   0.2916667), wk =   0.0046296
        k(  275) = (   0.2083333   0.3750000   0.3750000), wk =   0.0046296
        k(  276) = (   0.2083333   0.3750000   0.4583333), wk =   0.0046296
        k(  277) = (   0.2083333   0.3750000  -0.4583333), wk =   0.0046296
        k(  278) = (   0.2083333   0.3750000  -0.3750000), wk =   0.0046296
        k(  279) = (   0.2083333   0.3750000  -0.2916667), wk =   0.0046296
        k(  280) = (   0.2083333   0.3750000  -0.2083333), wk =   0.0046296
        k(  281) = (   0.2083333   0.3750000  -0.1250000), wk =   0.0046296
        k(  282) = (   0.2083333   0.3750000  -0.0416667), wk =   0.0046296
        k(  283) = (   0.2083333   0.4583333   0.0416667), wk =   0.0046296
        k(  284) = (   0.2083333   0.4583333   0.1250000), wk =   0.0046296
        k(  285) = (   0.2083333   0.4583333   0.2083333), wk =   0.0046296
        k(  286) = (   0.2083333   0.4583333   0.2916667), wk =   0.0046296
        k(  287) = (   0.2083333   0.4583333   0.3750000), wk =   0.0046296
        k(  288) = (   0.2083333   0.4583333   0.4583333), wk =   0.0046296
        k(  289) = (   0.2083333   0.4583333  -0.4583333), wk =   0.0046296
        k(  290) = (   0.2083333   0.4583333  -0.3750000), wk =   0.0046296
        k(  291) = (   0.2083333   0.4583333  -0.2916667), wk =   0.0046296
        k(  292) = (   0.2083333   0.4583333  -0.2083333), wk =   0.0046296
        k(  293) = (   0.2083333   0.4583333  -0.1250000), wk =   0.0046296
        k(  294) = (   0.2083333   0.4583333  -0.0416667), wk =   0.0046296
        k(  295) = (   0.2083333  -0.4583333   0.0416667), wk =   0.0046296
        k(  296) = (   0.2083333  -0.4583333   0.1250000), wk =   0.0046296
        k(  297) = (   0.2083333  -0.4583333   0.2083333), wk =   0.0046296
        k(  298) = (   0.2083333  -0.4583333   0.2916667), wk =   0.0046296
        k(  299) = (   0.2083333  -0.4583333   0.3750000), wk =   0.0046296
        k(  300) = (   0.2083333  -0.4583333   0.4583333), wk =   0.0046296
        k(  301) = (   0.2083333  -0.4583333  -0.4583333), wk =   0.0046296
        k(  302) = (   0.2083333  -0.4583333  -0.3750000), wk =   0.0046296
        k(  303) = (   0.2083333  -0.4583333  -0.2916667), wk =   0.0046296
        k(  304) = (   0.2083333  -0.4583333  -0.2083333), wk =   0.0046296
        k(  305) = (   0.2083333  -0.4583333  -0.1250000), wk =   0.0046296
        k(  306) = (   0.2083333  -0.4583333  -0.0416667), wk =   0.0046296
        k(  307) = (   0.2083333  -0.3750000   0.0416667), wk =   0.0046296
        k(  308) = (   0.2083333  -0.3750000   0.1250000), wk =   0.0046296
        k(  309) = (   0.2083333  -0.3750000   0.2083333), wk =   0.0046296
        k(  310) = (   0.2083333  -0.3750000   0.2916667), wk =   0.0046296
        k(  311) = (   0.2083333  -0.3750000   0.3750000), wk =   0.0046296
        k(  312) = (   0.2083333  -0.3750000   0.4583333), wk =   0.0046296
        k(  313) = (   0.2083333  -0.3750000  -0.4583333), wk =   0.0046296
        k(  314) = (   0.2083333  -0.3750000  -0.3750000), wk =   0.0046296
        k(  315) = (   0.2083333  -0.3750000  -0.2916667), wk =   0.0046296
        k(  316) = (   0.2083333  -0.3750000  -0.2083333), wk =   0.0046296
        k(  317) = (   0.2083333  -0.3750000  -0.1250000), wk =   0.0046296
        k(  318) = (   0.2083333  -0.3750000  -0.0416667), wk =   0.0046296
        k(  319) = (   0.2083333  -0.2916667   0.0416667), wk =   0.0046296
        k(  320) = (   0.2083333  -0.2916667   0.1250000), wk =   0.0046296
        k(  321) = (   0.2083333  -0.2916667   0.2083333), wk =   0.0046296
        k(  322) = (   0.2083333  -0.2916667   0.2916667), wk =   0.0046296
        k(  323) = (   0.2083333  -0.2916667   0.3750000), wk =   0.0046296
        k(  324) = (   0.2083333  -0.2916667   0.4583333), wk =   0.0046296
        k(  325) = (   0.2083333  -0.2916667  -0.4583333), wk =   0.0046296
        k(  326) = (   0.2083333  -0.2916667  -0.3750000), wk =   0.0046296
        k(  327) = (   0.2083333  -0.2916667  -0.2916667), wk =   0.0046296
        k(  328) = (   0.2083333  -0.2916667  -0.2083333), wk =   0.0046296
        k(  329) = (   0.2083333  -0.2916667  -0.1250000), wk =   0.0046296
        k(  330) = (   0.2083333  -0.2916667  -0.0416667), wk =   0.0046296
        k(  331) = (   0.2083333  -0.2083333   0.0416667), wk =   0.0023148
        k(  332) = (   0.2083333  -0.2083333   0.1250000), wk =   0.0023148
        k(  333) = (   0.2083333  -0.2083333   0.2083333), wk =   0.0023148
        k(  334) = (   0.2083333  -0.2083333   0.2916667), wk =   0.0023148
        k(  335) = (   0.2083333  -0.2083333   0.3750000), wk =   0.0023148
        k(  336) = (   0.2083333  -0.2083333   0.4583333), wk =   0.0023148
        k(  337) = (   0.2083333  -0.2083333  -0.4583333), wk =   0.0023148
        k(  338) = (   0.2083333  -0.2083333  -0.3750000), wk =   0.0023148
        k(  339) = (   0.2083333  -0.2083333  -0.2916667), wk =   0.0023148
        k(  340) = (   0.2083333  -0.2083333  -0.2083333), wk =   0.0023148
        k(  341) = (   0.2083333  -0.2083333  -0.1250000), wk =   0.0023148
        k(  342) = (   0.2083333  -0.2083333  -0.0416667), wk =   0.0023148
        k(  343) = (   0.2916667   0.2916667   0.0416667), wk =   0.0046296
        k(  344) = (   0.2916667   0.2916667   0.1250000), wk =   0.0046296
        k(  345) = (   0.2916667   0.2916667   0.2083333), wk =   0.0046296
        k(  346) = (   0.2916667   0.2916667   0.2916667), wk =   0.0046296
        k(  347) = (   0.2916667   0.2916667   0.3750000), wk =   0.0046296
        k(  348) = (   0.2916667   0.2916667   0.4583333), wk =   0.0046296
        k(  349) = (   0.2916667   0.3750000   0.0416667), wk =   0.0046296
        k(  350) = (   0.2916667   0.3750000   0.1250000), wk =   0.0046296
        k(  351) = (   0.2916667   0.3750000   0.2083333), wk =   0.0046296
        k(  352) = (   0.2916667   0.3750000   0.2916667), wk =   0.0046296
        k(  353) = (   0.2916667   0.3750000   0.3750000), wk =   0.0046296
        k(  354) = (   0.2916667   0.3750000   0.4583333), wk =   0.0046296
        k(  355) = (   0.2916667   0.3750000  -0.4583333), wk =   0.0046296
        k(  356) = (   0.2916667   0.3750000  -0.3750000), wk =   0.0046296
        k(  357) = (   0.2916667   0.3750000  -0.2916667), wk =   0.0046296
        k(  358) = (   0.2916667   0.3750000  -0.2083333), wk =   0.0046296
        k(  359) = (   0.2916667   0.3750000  -0.1250000), wk =   0.0046296
        k(  360) = (   0.2916667   0.3750000  -0.0416667), wk =   0.0046296
        k(  361) = (   0.2916667   0.4583333   0.0416667), wk =   0.0046296
        k(  362) = (   0.2916667   0.4583333   0.1250000), wk =   0.0046296
        k(  363) = (   0.2916667   0.4583333   0.2083333), wk =   0.0046296
        k(  364) = (   0.2916667   0.4583333   0.2916667), wk =   0.0046296
        k(  365) = (   0.2916667   0.4583333   0.3750000), wk =   0.0046296
        k(  366) = (   0.2916667   0.4583333   0.4583333), wk =   0.0046296
        k(  367) = (   0.2916667   0.4583333  -0.4583333), wk =   0.0046296
        k(  368) = (   0.2916667   0.4583333  -0.3750000), wk =   0.0046296
        k(  369) = (   0.2916667   0.4583333  -0.2916667), wk =   0.0046296
        k(  370) = (   0.2916667   0.4583333  -0.2083333), wk =   0.0046296
        k(  371) = (   0.2916667   0.4583333  -0.1250000), wk =   0.0046296
        k(  372) = (   0.2916667   0.4583333  -0.0416667), wk =   0.0046296
        k(  373) = (   0.2916667  -0.4583333   0.0416667), wk =   0.0046296
        k(  374) = (   0.2916667  -0.4583333   0.1250000), wk =   0.0046296
        k(  375) = (   0.2916667  -0.4583333   0.2083333), wk =   0.0046296
        k(  376) = (   0.2916667  -0.4583333   0.2916667), wk =   0.0046296
        k(  377) = (   0.2916667  -0.4583333   0.3750000), wk =   0.0046296
        k(  378) = (   0.2916667  -0.4583333   0.4583333), wk =   0.0046296
        k(  379) = (   0.2916667  -0.4583333  -0.4583333), wk =   0.0046296
        k(  380) = (   0.2916667  -0.4583333  -0.3750000), wk =   0.0046296
        k(  381) = (   0.2916667  -0.4583333  -0.2916667), wk =   0.0046296
        k(  382) = (   0.2916667  -0.4583333  -0.2083333), wk =   0.0046296
        k(  383) = (   0.2916667  -0.4583333  -0.1250000), wk =   0.0046296
        k(  384) = (   0.2916667  -0.4583333  -0.0416667), wk =   0.0046296
        k(  385) = (   0.2916667  -0.3750000   0.0416667), wk =   0.0046296
        k(  386) = (   0.2916667  -0.3750000   0.1250000), wk =   0.0046296
        k(  387) = (   0.2916667  -0.3750000   0.2083333), wk =   0.0046296
        k(  388) = (   0.2916667  -0.3750000   0.2916667), wk =   0.0046296
        k(  389) = (   0.2916667  -0.3750000   0.3750000), wk =   0.0046296
        k(  390) = (   0.2916667  -0.3750000   0.4583333), wk =   0.0046296
        k(  391) = (   0.2916667  -0.3750000  -0.4583333), wk =   0.0046296
        k(  392) = (   0.2916667  -0.3750000  -0.3750000), wk =   0.0046296
        k(  393) = (   0.2916667  -0.3750000  -0.2916667), wk =   0.0046296
        k(  394) = (   0.2916667  -0.3750000  -0.2083333), wk =   0.0046296
        k(  395) = (   0.2916667  -0.3750000  -0.1250000), wk =   0.0046296
        k(  396) = (   0.2916667  -0.3750000  -0.0416667), wk =   0.0046296
        k(  397) = (   0.2916667  -0.2916667   0.0416667), wk =   0.0023148
        k(  398) = (   0.2916667  -0.2916667   0.1250000), wk =   0.0023148
        k(  399) = (   0.2916667  -0.2916667   0.2083333), wk =   0.0023148
        k(  400) = (   0.2916667  -0.2916667   0.2916667), wk =   0.0023148
        k(  401) = (   0.2916667  -0.2916667   0.3750000), wk =   0.0023148
        k(  402) = (   0.2916667  -0.2916667   0.4583333), wk =   0.0023148
        k(  403) = (   0.2916667  -0.2916667  -0.4583333), wk =   0.0023148
        k(  404) = (   0.2916667  -0.2916667  -0.3750000), wk =   0.0023148
        k(  405) = (   0.2916667  -0.2916667  -0.2916667), wk =   0.0023148
        k(  406) = (   0.2916667  -0.2916667  -0.2083333), wk =   0.0023148
        k(  407) = (   0.2916667  -0.2916667  -0.1250000), wk =   0.0023148
        k(  408) = (   0.2916667  -0.2916667  -0.0416667), wk =   0.0023148
        k(  409) = (   0.3750000   0.3750000   0.0416667), wk =   0.0046296
        k(  410) = (   0.3750000   0.3750000   0.1250000), wk =   0.0046296
        k(  411) = (   0.3750000   0.3750000   0.2083333), wk =   0.0046296
        k(  412) = (   0.3750000   0.3750000   0.2916667), wk =   0.0046296
        k(  413) = (   0.3750000   0.3750000   0.3750000), wk =   0.0046296
        k(  414) = (   0.3750000   0.3750000   0.4583333), wk =   0.0046296
        k(  415) = (   0.3750000   0.4583333   0.0416667), wk =   0.0046296
        k(  416) = (   0.3750000   0.4583333   0.1250000), wk =   0.0046296
        k(  417) = (   0.3750000   0.4583333   0.2083333), wk =   0.0046296
        k(  418) = (   0.3750000   0.4583333   0.2916667), wk =   0.0046296
        k(  419) = (   0.3750000   0.4583333   0.3750000), wk =   0.0046296
        k(  420) = (   0.3750000   0.4583333   0.4583333), wk =   0.0046296
        k(  421) = (   0.3750000   0.4583333  -0.4583333), wk =   0.0046296
        k(  422) = (   0.3750000   0.4583333  -0.3750000), wk =   0.0046296
        k(  423) = (   0.3750000   0.4583333  -0.2916667), wk =   0.0046296
        k(  424) = (   0.3750000   0.4583333  -0.2083333), wk =   0.0046296
        k(  425) = (   0.3750000   0.4583333  -0.1250000), wk =   0.0046296
        k(  426) = (   0.3750000   0.4583333  -0.0416667), wk =   0.0046296
        k(  427) = (   0.3750000  -0.4583333   0.0416667), wk =   0.0046296
        k(  428) = (   0.3750000  -0.4583333   0.1250000), wk =   0.0046296
        k(  429) = (   0.3750000  -0.4583333   0.2083333), wk =   0.0046296
        k(  430) = (   0.3750000  -0.4583333   0.2916667), wk =   0.0046296
        k(  431) = (   0.3750000  -0.4583333   0.3750000), wk =   0.0046296
        k(  432) = (   0.3750000  -0.4583333   0.4583333), wk =   0.0046296
        k(  433) = (   0.3750000  -0.4583333  -0.4583333), wk =   0.0046296
        k(  434) = (   0.3750000  -0.4583333  -0.3750000), wk =   0.0046296
        k(  435) = (   0.3750000  -0.4583333  -0.2916667), wk =   0.0046296
        k(  436) = (   0.3750000  -0.4583333  -0.2083333), wk =   0.0046296
        k(  437) = (   0.3750000  -0.4583333  -0.1250000), wk =   0.0046296
        k(  438) = (   0.3750000  -0.4583333  -0.0416667), wk =   0.0046296
        k(  439) = (   0.3750000  -0.3750000   0.0416667), wk =   0.0023148
        k(  440) = (   0.3750000  -0.3750000   0.1250000), wk =   0.0023148
        k(  441) = (   0.3750000  -0.3750000   0.2083333), wk =   0.0023148
        k(  442) = (   0.3750000  -0.3750000   0.2916667), wk =   0.0023148
        k(  443) = (   0.3750000  -0.3750000   0.3750000), wk =   0.0023148
        k(  444) = (   0.3750000  -0.3750000   0.4583333), wk =   0.0023148
        k(  445) = (   0.3750000  -0.3750000  -0.4583333), wk =   0.0023148
        k(  446) = (   0.3750000  -0.3750000  -0.3750000), wk =   0.0023148
        k(  447) = (   0.3750000  -0.3750000  -0.2916667), wk =   0.0023148
        k(  448) = (   0.3750000  -0.3750000  -0.2083333), wk =   0.0023148
        k(  449) = (   0.3750000  -0.3750000  -0.1250000), wk =   0.0023148
        k(  450) = (   0.3750000  -0.3750000  -0.0416667), wk =   0.0023148
        k(  451) = (   0.4583333   0.4583333   0.0416667), wk =   0.0046296
        k(  452) = (   0.4583333   0.4583333   0.1250000), wk =   0.0046296
        k(  453) = (   0.4583333   0.4583333   0.2083333), wk =   0.0046296
        k(  454) = (   0.4583333   0.4583333   0.2916667), wk =   0.0046296
        k(  455) = (   0.4583333   0.4583333   0.3750000), wk =   0.0046296
        k(  456) = (   0.4583333   0.4583333   0.4583333), wk =   0.0046296
        k(  457) = (   0.4583333  -0.4583333   0.0416667), wk =   0.0023148
        k(  458) = (   0.4583333  -0.4583333   0.1250000), wk =   0.0023148
        k(  459) = (   0.4583333  -0.4583333   0.2083333), wk =   0.0023148
        k(  460) = (   0.4583333  -0.4583333   0.2916667), wk =   0.0023148
        k(  461) = (   0.4583333  -0.4583333   0.3750000), wk =   0.0023148
        k(  462) = (   0.4583333  -0.4583333   0.4583333), wk =   0.0023148
        k(  463) = (   0.4583333  -0.4583333  -0.4583333), wk =   0.0023148
        k(  464) = (   0.4583333  -0.4583333  -0.3750000), wk =   0.0023148
        k(  465) = (   0.4583333  -0.4583333  -0.2916667), wk =   0.0023148
        k(  466) = (   0.4583333  -0.4583333  -0.2083333), wk =   0.0023148
        k(  467) = (   0.4583333  -0.4583333  -0.1250000), wk =   0.0023148
        k(  468) = (   0.4583333  -0.4583333  -0.0416667), wk =   0.0023148

     Dense  grid:   162035 G-vectors     FFT dimensions: (  64,  64, 100)

     Smooth grid:    57309 G-vectors     FFT dimensions: (  45,  45,  72)

     Dynamical RAM for                 wfc:       0.82 MB

     Dynamical RAM for     wfc (w. buffer):       0.82 MB

     Dynamical RAM for           str. fact:       2.47 MB

     Dynamical RAM for           local pot:       0.00 MB

     Dynamical RAM for          nlocal pot:       2.95 MB

     Dynamical RAM for                qrad:       4.54 MB

     Dynamical RAM for          rho,v,vnew:       8.40 MB

     Dynamical RAM for           G-vectors:       4.85 MB

     Dynamical RAM for          h,s,v(r/c):       0.04 MB

     Dynamical RAM for          <psi|beta>:       0.01 MB

     Dynamical RAM for                 psi:       1.64 MB

     Dynamical RAM for                hpsi:       1.64 MB

     Dynamical RAM for                spsi:       1.64 MB

     Dynamical RAM for      wfcinit/wfcrot:       1.86 MB

     Dynamical RAM for           addusdens:     232.40 MB

     Estimated static dynamical RAM per process >      35.55 MB

     Estimated max dynamical RAM per process >     267.95 MB

     Estimated total dynamical RAM >     535.91 MB

     The potential is recalculated from file :
     ../tmp/PtS2.save/charge-density

     Starting wfcs are   17 randomized atomic wfcs
     Checking if some PAW data can be deallocated... 
       PAW data deallocated on    1 nodes for type:  1

     Band Structure Calculation
     Davidson diagonalization with overlap

     Computing kpt #:     1  of   468
     total cpu time spent up to now is       22.4 secs

     Computing kpt #:     2  of   468
     total cpu time spent up to now is       28.0 secs

     Computing kpt #:     3  of   468
     total cpu time spent up to now is       34.3 secs

     Computing kpt #:     4  of   468
     total cpu time spent up to now is       40.4 secs

[...]
     4.3855   5.4528   5.7707   8.7734   9.2688  12.6418  14.2892

     occupation numbers 
     1.0000   1.0000   1.0000   1.0000   1.0000   1.0000   1.0000   1.0000
     1.0000   1.0000   1.0000   0.0000   0.0000   0.0000   0.0000

          k = 0.8333 0.0481-0.1305 (  7156 PWs)   bands (ev):

    -5.6940  -5.5190   0.5684   1.4828   2.3763   2.8698   3.1778   4.3277
     4.3867   5.3590   5.8546   8.7477   9.1173  12.6282  14.5511

     occupation numbers 
     1.0000   1.0000   1.0000   1.0000   1.0000   1.0000   1.0000   1.0000
     1.0000   1.0000   1.0000   0.0000   0.0000   0.0000   0.0000

          k = 0.8333 0.0481-0.0783 (  7164 PWs)   bands (ev):

    -5.6980  -5.5178   0.5787   1.4895   2.3664   2.9114   3.1565   4.3456
     4.3873   5.2774   5.9324   8.7398   8.9591  12.6235  14.7566

     occupation numbers 
     1.0000   1.0000   1.0000   1.0000   1.0000   1.0000   1.0000   1.0000
     1.0000   1.0000   1.0000   0.0000   0.0000   0.0000   0.0000

          k = 0.8333 0.0481-0.0261 (  7170 PWs)   bands (ev):

    -5.7078  -5.5087   0.5818   1.4892   2.3519   2.9560   3.1365   4.3647
     4.3903   5.2167   6.0016   8.6781   8.9007  12.6251  14.8918

     occupation numbers 
     1.0000   1.0000   1.0000   1.0000   1.0000   1.0000   1.0000   1.0000
     1.0000   1.0000   1.0000   0.0000   0.0000   0.0000   0.0000

          k =-0.0833-0.4811 0.0261 (  7159 PWs)   bands (ev):

    -5.9291  -5.4556   0.5405   1.5504   2.2532   2.8679   3.5748   4.4671
     4.6751   4.9774   5.8572   8.8029   9.3666  12.4368  14.0356

     occupation numbers 
     1.0000   1.0000   1.0000   1.0000   1.0000   1.0000   1.0000   1.0000
     1.0000   1.0000   1.0000   0.0000   0.0000   0.0000   0.0000

          k =-0.0833-0.4811 0.0783 (  7154 PWs)   bands (ev):

    -5.9376  -5.4413   0.5156   1.5369   2.1805   2.9329   3.5802   4.4795
     4.7162   4.9663   5.9593   8.7103   9.3504  12.3870  13.9063

     occupation numbers 
     1.0000   1.0000   1.0000   1.0000   1.0000   1.0000   1.0000   1.0000
     1.0000   1.0000   1.0000   0.0000   0.0000   0.0000   0.0000

          k =-0.0833-0.4811 0.1305 (  7167 PWs)   bands (ev):

    -5.9385  -5.4349   0.4875   1.5223   2.1207   2.9769   3.5893   4.4954
     4.7301   4.9994   6.0423   8.6897   9.3175  12.2948  13.7670

     occupation numbers 
     1.0000   1.0000   1.0000   1.0000   1.0000   1.0000   1.0000   1.0000
     1.0000   1.0000   1.0000   0.0000   0.0000   0.0000   0.0000

          k =-0.0833-0.4811 0.1827 (  7154 PWs)   bands (ev):

    -5.9317  -5.4380   0.4638   1.5107   2.0837   2.9931   3.6000   4.5127
     4.7086   5.0709   6.0824   8.7452   9.2751  12.2246  13.6206

     occupation numbers 
     1.0000   1.0000   1.0000   1.0000   1.0000   1.0000   1.0000   1.0000
     1.0000   1.0000   1.0000   0.0000   0.0000   0.0000   0.0000

          k =-0.0833-0.4811 0.2349 (  7158 PWs)   bands (ev):

    -5.9185  -5.4501   0.4506   1.5054   2.0737   2.9807   3.6093   4.5296
     4.6663   5.1586   6.0613   8.8691   9.2260  12.2167  13.4717

     occupation numbers 
     1.0000   1.0000   1.0000   1.0000   1.0000   1.0000   1.0000   1.0000
     1.0000   1.0000   1.0000   0.0000   0.0000   0.0000   0.0000

          k =-0.0833-0.4811 0.2871 (  7159 PWs)   bands (ev):

    -5.9016  -5.4690   0.4515   1.5079   2.0916   2.9445   3.6145   4.5435
     4.6181   5.2447   5.9754   9.0328   9.1852  12.2432  13.3713

     occupation numbers 
     1.0000   1.0000   1.0000   1.0000   1.0000   1.0000   1.0000   1.0000
     1.0000   1.0000   1.0000   0.0000   0.0000   0.0000   0.0000

          k =-0.0833-0.4811-0.2870 (  7159 PWs)   bands (ev):

    -5.8848  -5.4902   0.4663   1.5174   2.1356   2.8919   3.6141   4.5434
     4.5826   5.3180   5.8381   9.1162   9.2499  12.2192  13.4161

     occupation numbers 
     1.0000   1.0000   1.0000   1.0000   1.0000   1.0000   1.0000   1.0000
     1.0000   1.0000   1.0000   0.0000   0.0000   0.0000   0.0000

          k =-0.0833-0.4811-0.2348 (  7158 PWs)   bands (ev):

    -5.8732  -5.5075   0.4911   1.5309   2.2003   2.8322   3.6083   4.5139
     4.5802   5.3662   5.6820   9.1294   9.3700  12.1452  13.6092

     occupation numbers 
     1.0000   1.0000   1.0000   1.0000   1.0000   1.0000   1.0000   1.0000
     1.0000   1.0000   1.0000   0.0000   0.0000   0.0000   0.0000

          k =-0.0833-0.4811-0.1827 (  7154 PWs)   bands (ev):

    -5.8712  -5.5150   0.5194   1.5450   2.2751   2.7760   3.5987   4.4846
     4.5853   5.3428   5.5848   9.1699   9.3969  12.1180  13.8375

     occupation numbers 
     1.0000   1.0000   1.0000   1.0000   1.0000   1.0000   1.0000   1.0000
     1.0000   1.0000   1.0000   0.0000   0.0000   0.0000   0.0000

          k =-0.0833-0.4811-0.1305 (  7166 PWs)   bands (ev):

    -5.8800  -5.5099   0.5434   1.5560   2.3387   2.7386   3.5881   4.4660
     4.5918   5.2264   5.6020   9.2193   9.3234  12.1827  14.0127

     occupation numbers 
     1.0000   1.0000   1.0000   1.0000   1.0000   1.0000   1.0000   1.0000
     1.0000   1.0000   1.0000   0.0000   0.0000   0.0000   0.0000

          k =-0.0833-0.4811-0.0783 (  7154 PWs)   bands (ev):

    -5.8962  -5.4947   0.5567   1.5611   2.3584   2.7439   3.5792   4.4586
     4.6053   5.1085   5.6678   9.1265   9.3179  12.3014  14.1097

     occupation numbers 
     1.0000   1.0000   1.0000   1.0000   1.0000   1.0000   1.0000   1.0000
     1.0000   1.0000   1.0000   0.0000   0.0000   0.0000   0.0000

          k =-0.0833-0.4811-0.0261 (  7159 PWs)   bands (ev):

    -5.9142  -5.4748   0.5556   1.5591   2.3215   2.7963   3.5744   4.4597
     4.6331   5.0247   5.7558   8.9524   9.3558  12.4043  14.1181

     occupation numbers 
     1.0000   1.0000   1.0000   1.0000   1.0000   1.0000   1.0000   1.0000
     1.0000   1.0000   1.0000   0.0000   0.0000   0.0000   0.0000

          k = 0.0000-0.4330 0.0261 (  7159 PWs)   bands (ev):

    -6.1403  -5.4143   0.7246   1.5773   2.0485   2.6683   3.6957   4.3296
     5.0636   5.3731   5.7891   8.8141   9.5127  12.3199  13.8610

     occupation numbers 
     1.0000   1.0000   1.0000   1.0000   1.0000   1.0000   1.0000   1.0000
     1.0000   1.0000   1.0000   0.0000   0.0000   0.0000   0.0000

          k = 0.0000-0.4330 0.0783 (  7149 PWs)   bands (ev):

    -6.1433  -5.4057   0.6873   1.5704   1.9585   2.7562   3.7062   4.3261
     5.0856   5.3899   5.9595   8.6569   9.4504  12.2640  13.7078

     occupation numbers 
     1.0000   1.0000   1.0000   1.0000   1.0000   1.0000   1.0000   1.0000
     1.0000   1.0000   1.0000   0.0000   0.0000   0.0000   0.0000

          k = 0.0000-0.4330 0.1305 (  7148 PWs)   bands (ev):

    -6.1361  -5.4093   0.6495   1.5627   1.8818   2.8357   3.7155   4.3435
     5.0861   5.4146   6.1191   8.5594   9.3725  12.1656  13.5708

     occupation numbers 
     1.0000   1.0000   1.0000   1.0000   1.0000   1.0000   1.0000   1.0000
     1.0000   1.0000   1.0000   0.0000   0.0000   0.0000   0.0000

          k = 0.0000-0.4330 0.1827 (  7145 PWs)   bands (ev):

    -6.1203  -5.4245   0.6213   1.5562   1.8308   2.8921   3.7210   4.3783
     5.0609   5.4408   6.2261   8.5407   9.3002  12.0921  13.4614

     occupation numbers 
     1.0000   1.0000   1.0000   1.0000   1.0000   1.0000   1.0000   1.0000
     1.0000   1.0000   1.0000   0.0000   0.0000   0.0000   0.0000

          k = 0.0000-0.4330 0.2349 (  7154 PWs)   bands (ev):

    -6.0990  -5.4485   0.6100   1.5526   1.8101   2.9183   3.7215   4.4257
     5.0125   5.4610   6.2432   8.6136   9.2523  12.0741  13.3857

     occupation numbers 
     1.0000   1.0000   1.0000   1.0000   1.0000   1.0000   1.0000   1.0000
     1.0000   1.0000   1.0000   0.0000   0.0000   0.0000   0.0000

          k = 0.0000-0.4330 0.2871 (  7145 PWs)   bands (ev):

    -6.0771  -5.4755   0.6180   1.5529   1.8206   2.9126   3.7169   4.4797
     4.9502   5.4693   6.1594   8.7725   9.2409  12.0833  13.3693

     occupation numbers 
     1.0000   1.0000   1.0000   1.0000   1.0000   1.0000   1.0000   1.0000
     1.0000   1.0000   1.0000   0.0000   0.0000   0.0000   0.0000

          k = 0.0000-0.4330-0.2870 (  7145 PWs)   bands (ev):

    -6.0611  -5.4977   0.6432   1.5569   1.8604   2.8771   3.7085   4.5302
     4.8893   5.4633   6.0008   8.9826   9.2689  12.0583  13.4536

     occupation numbers 
     1.0000   1.0000   1.0000   1.0000   1.0000   1.0000   1.0000   1.0000
     1.0000   1.0000   1.0000   0.0000   0.0000   0.0000   0.0000

          k = 0.0000-0.4330-0.2349 (  7156 PWs)   bands (ev):

    -6.0566  -5.5078   0.6791   1.5636   1.9246   2.8166   3.6983   4.5558
     4.8540   5.4451   5.8161   9.1850   9.3292  11.9918  13.6313

     occupation numbers 
     1.0000   1.0000   1.0000   1.0000   1.0000   1.0000   1.0000   1.0000
     1.0000   1.0000   1.0000   0.0000   0.0000   0.0000   0.0000

          k = 0.0000-0.4330-0.1827 (  7147 PWs)   bands (ev):

    -6.0657  -5.5023   0.7167   1.5714   2.0050   2.7381   3.6890   4.5325
     4.8688   5.4201   5.6571   9.3095   9.4062  11.9561  13.8262

     occupation numbers 
     1.0000   1.0000   1.0000   1.0000   1.0000   1.0000   1.0000   1.0000
     1.0000   1.0000   1.0000   0.0000   0.0000   0.0000   0.0000

          k = 0.0000-0.4330-0.1305 (  7148 PWs)   bands (ev):

    -6.0849  -5.4836   0.7459   1.5780   2.0866   2.6541   3.6831   4.4727
     4.9200   5.3950   5.5651   9.3069   9.4797  12.0149  13.9664

     occupation numbers 
     1.0000   1.0000   1.0000   1.0000   1.0000   1.0000   1.0000   1.0000
     1.0000   1.0000   1.0000   0.0000   0.0000   0.0000   0.0000

          k = 0.0000-0.4330-0.0783 (  7149 PWs)   bands (ev):

    -6.1077  -5.4582   0.7586   1.5817   2.1398   2.5939   3.6822   4.4075
     4.9776   5.3762   5.5624   9.1870   9.5297  12.1505  14.0237

     occupation numbers 
     1.0000   1.0000   1.0000   1.0000   1.0000   1.0000   1.0000   1.0000
     1.0000   1.0000   1.0000   0.0000   0.0000   0.0000   0.0000

          k = 0.0000-0.4330-0.0261 (  7159 PWs)   bands (ev):

    -6.1277  -5.4332   0.7508   1.5815   2.1241   2.6001   3.6869   4.3570
     5.0265   5.3682   5.6455   9.0041   9.5419  12.2783  13.9855

     occupation numbers 
     1.0000   1.0000   1.0000   1.0000   1.0000   1.0000   1.0000   1.0000
     1.0000   1.0000   1.0000   0.0000   0.0000   0.0000   0.0000

          k = 0.9167-0.0000 0.0261 (  7165 PWs)   bands (ev):

    -5.7599  -5.5016   0.3182   1.5657   2.4637   2.9947   3.8289   4.3212
     4.4282   4.9012   5.4722   8.9903   9.3367  12.3958  13.8801

     occupation numbers 
     1.0000   1.0000   1.0000   1.0000   1.0000   1.0000   1.0000   1.0000
     1.0000   1.0000   1.0000   0.0000   0.0000   0.0000   0.0000

          k = 0.9167-0.0000 0.0783 (  7156 PWs)   bands (ev):

    -5.7662  -5.4922   0.3081   1.5606   2.4601   2.9565   3.8405   4.3265
     4.4246   4.9520   5.4890   9.0398   9.3229  12.3057  13.8281

     occupation numbers 
     1.0000   1.0000   1.0000   1.0000   1.0000   1.0000   1.0000   1.0000
     1.0000   1.0000   1.0000   0.0000   0.0000   0.0000   0.0000

          k = 0.9167-0.0000 0.1305 (  7158 PWs)   bands (ev):

    -5.7761  -5.4767   0.2903   1.5520   2.4594   2.8882   3.8603   4.3351
     4.4171   5.0391   5.5189   9.0970   9.3296  12.1782  13.7252

     occupation numbers 
     1.0000   1.0000   1.0000   1.0000   1.0000   1.0000   1.0000   1.0000
     1.0000   1.0000   1.0000   0.0000   0.0000   0.0000   0.0000

          k = 0.9167-0.0000 0.1827 (  7151 PWs)   bands (ev):

    -5.7865  -5.4599   0.2693   1.5424   2.4706   2.8022   3.8829   4.3452
     4.4068   5.1379   5.5548   9.1189   9.3798  12.0886  13.5624

     occupation numbers 
     1.0000   1.0000   1.0000   1.0000   1.0000   1.0000   1.0000   1.0000
     1.0000   1.0000   1.0000   0.0000   0.0000   0.0000   0.0000

          k = 0.9167-0.0000 0.2349 (  7146 PWs)   bands (ev):

    -5.7946  -5.4461   0.2508   1.5344   2.5002   2.7113   3.9021   4.3554
     4.3957   5.2219   5.5864   9.1308   9.4221  12.0902  13.3465

     occupation numbers 
     1.0000   1.0000   1.0000   1.0000   1.0000   1.0000   1.0000   1.0000
     1.0000   1.0000   1.0000   0.0000   0.0000   0.0000   0.0000

          k = 0.9167-0.0000 0.2871 (  7169 PWs)   bands (ev):

    -5.7991  -5.4385   0.2400   1.5299   2.5492   2.6282   3.9130   4.3640
     4.3865   5.2700   5.6045   9.1469   9.4302  12.1532  13.1599

     occupation numbers 
     1.0000   1.0000   1.0000   1.0000   1.0000   1.0000   1.0000   1.0000
     1.0000   1.0000   1.0000   0.0000   0.0000   0.0000   0.0000

          k = 0.0000-0.5292 0.0261 (  7170 PWs)   bands (ev):

    -5.8443  -5.4785   0.3032   1.6065   2.3561   2.9644   4.1561   4.4525
     4.6203   4.7540   5.1690   9.0053   9.6232  12.2837  13.4746

     occupation numbers 
     1.0000   1.0000   1.0000   1.0000   1.0000   1.0000   1.0000   1.0000
     1.0000   1.0000   1.0000   0.0000   0.0000   0.0000   0.0000

          k = 0.0000-0.5292 0.0783 (  7159 PWs)   bands (ev):

    -5.8574  -5.4597   0.2839   1.6008   2.2914   2.9914   4.1666   4.4941
     4.5617   4.7637   5.3064   8.9972   9.5717  12.1784  13.4052

     occupation numbers 
     1.0000   1.0000   1.0000   1.0000   1.0000   1.0000   1.0000   1.0000
     1.0000   1.0000   1.0000   0.0000   0.0000   0.0000   0.0000

          k = 0.0000-0.5292 0.1305 (  7148 PWs)   bands (ev):

    -5.8670  -5.4430   0.2591   1.5925   2.2394   2.9812   4.1776   4.5204
     4.5410   4.7836   5.4604   9.0454   9.4936  12.0275  13.3135

     occupation numbers 
     1.0000   1.0000   1.0000   1.0000   1.0000   1.0000   1.0000   1.0000
     1.0000   1.0000   1.0000   0.0000   0.0000   0.0000   0.0000

          k = 0.0000-0.5292 0.1827 (  7151 PWs)   bands (ev):

    -5.8713  -5.4323   0.2354   1.5840   2.2118   2.9405   4.1860   4.4878
     4.5898   4.8087   5.6030   9.1253   9.4105  11.9284  13.1866

     occupation numbers 
     1.0000   1.0000   1.0000   1.0000   1.0000   1.0000   1.0000   1.0000
     1.0000   1.0000   1.0000   0.0000   0.0000   0.0000   0.0000

          k = 0.0000-0.5293 0.2349 (  7152 PWs)   bands (ev):

    -5.8697  -5.4298   0.2190   1.5774   2.2154   2.8792   4.1898   4.4585
     4.6393   4.8320   5.6982   9.2136   9.3445  11.9258  13.0339

     occupation numbers 
     1.0000   1.0000   1.0000   1.0000   1.0000   1.0000   1.0000   1.0000
     1.0000   1.0000   1.0000   0.0000   0.0000   0.0000   0.0000

          k = 0.0000-0.5293 0.2871 (  7156 PWs)   bands (ev):

    -5.8626  -5.4363   0.2146   1.5745   2.2523   2.8082   4.1884   4.4322
     4.6875   4.8466   5.7143   9.3039   9.3119  11.9700  12.9213

     occupation numbers 
     1.0000   1.0000   1.0000   1.0000   1.0000   1.0000   1.0000   1.0000
     1.0000   1.0000   1.0000   0.0000   0.0000   0.0000   0.0000

          k = 0.0000-0.5292-0.2870 (  7156 PWs)   bands (ev):

    -5.8513  -5.4505   0.2236   1.5760   2.3198   2.7376   4.1825   4.4097
     4.7339   4.8480   5.6382   9.3208   9.3934  11.9333  12.9754

     occupation numbers 
     1.0000   1.0000   1.0000   1.0000   1.0000   1.0000   1.0000   1.0000
     1.0000   1.0000   1.0000   0.0000   0.0000   0.0000   0.0000

          k = 0.0000-0.5292-0.2348 (  7154 PWs)   bands (ev):

    -5.8382  -5.4694   0.2435   1.5815   2.4100   2.6772   4.1734   4.3923
     4.7787   4.8361   5.4843   9.3690   9.4548  11.8331  13.1768

     occupation numbers 
     1.0000   1.0000   1.0000   1.0000   1.0000   1.0000   1.0000   1.0000
     1.0000   1.0000   1.0000   0.0000   0.0000   0.0000   0.0000

          k = 0.0000-0.5292-0.1827 (  7151 PWs)   bands (ev):

    -5.8266  -5.4881   0.2688   1.5896   2.4982   2.6463   4.1631   4.3820
     4.8150   4.8222   5.2873   9.4426   9.4446  11.8095  13.3810

     occupation numbers 
     1.0000   1.0000   1.0000   1.0000   1.0000   1.0000   1.0000   1.0000
     1.0000   1.0000   1.0000   0.0000   0.0000   0.0000   0.0000

          k = 0.0000-0.5292-0.1305 (  7148 PWs)   bands (ev):

    -5.8202  -5.5009   0.2925   1.5982   2.5139   2.7020   4.1540   4.3816
     4.7907   4.8580   5.0952   9.3451   9.5282  11.9158  13.5116

     occupation numbers 
     1.0000   1.0000   1.0000   1.0000   1.0000   1.0000   1.0000   1.0000
     1.0000   1.0000   1.0000   0.0000   0.0000   0.0000   0.0000

          k = 0.0000-0.5292-0.0783 (  7159 PWs)   bands (ev):

    -5.8218  -5.5033   0.3083   1.6050   2.4755   2.8060   4.1489   4.3934
     4.7695   4.8227   5.0093   9.2050   9.5975  12.0989  13.5575

     occupation numbers 
     1.0000   1.0000   1.0000   1.0000   1.0000   1.0000   1.0000   1.0000
     1.0000   1.0000   1.0000   0.0000   0.0000   0.0000   0.0000

          k = 0.0000-0.5292-0.0261 (  7170 PWs)   bands (ev):

    -5.8310  -5.4947   0.3121   1.6080   2.4206   2.9000   4.1495   4.4179
     4.7096   4.7563   5.0641   9.0790   9.6327  12.2541  13.5335

     occupation numbers 
     1.0000   1.0000   1.0000   1.0000   1.0000   1.0000   1.0000   1.0000
     1.0000   1.0000   1.0000   0.0000   0.0000   0.0000   0.0000

     the Fermi energy is     7.6371 ev
     (compare with:     6.9870 eV, computed in scf)

     Writing output data file ../tmp/PtS2.save/

     init_run     :     10.18s CPU     11.02s WALL (       1 calls)
     electrons    :   2470.72s CPU   2577.54s WALL (       1 calls)

     Called by init_run:
     wfcinit      :      0.00s CPU      0.00s WALL (       1 calls)
     wfcinit:atom :      0.92s CPU      1.01s WALL (     468 calls)
     wfcinit:wfcr :     53.04s CPU     54.78s WALL (     468 calls)
     potinit      :      1.17s CPU      1.32s WALL (       1 calls)
     hinit0       :      7.53s CPU      7.74s WALL (       1 calls)

     Called by electrons:
     c_bands      :   2470.72s CPU   2577.45s WALL (       1 calls)
     v_of_rho     :      0.41s CPU      0.42s WALL (       1 calls)
     v_h          :      0.04s CPU      0.04s WALL (       1 calls)
     v_xc         :      0.37s CPU      0.38s WALL (       1 calls)
     newd         :      1.18s CPU      1.57s WALL (       1 calls)
     PAW_pot      :      0.71s CPU      0.73s WALL (       1 calls)

     Called by c_bands:
     init_us_2    :      1.58s CPU      1.79s WALL (     468 calls)
     cegterg      :   2400.58s CPU   2467.71s WALL (    1796 calls)

     Called by sum_band:

     Called by *egterg:
     cdiaghg      :     15.11s CPU     15.58s WALL (   32466 calls)
     cegterg:over :     52.24s CPU     53.56s WALL (   31998 calls)
     cegterg:upda :     30.68s CPU     31.37s WALL (   31998 calls)
     cegterg:last :     84.68s CPU     86.60s WALL (   21955 calls)
     h_psi        :   2182.17s CPU   2245.30s WALL (   34262 calls)
     s_psi        :     39.03s CPU     39.93s WALL (   34262 calls)
     g_psi        :     22.88s CPU     23.32s WALL (   31998 calls)

     Called by h_psi:
     h_psi:calbec :     48.27s CPU     49.79s WALL (   34262 calls)
     vloc_psi     :   2084.44s CPU   2144.93s WALL (   34262 calls)
     add_vuspsi   :     41.25s CPU     42.39s WALL (   34262 calls)

     General routines
     calbec       :     48.05s CPU     49.66s WALL (   34262 calls)
     fft          :      1.11s CPU      1.15s WALL (      13 calls)
     ffts         :      0.01s CPU      0.01s WALL (       1 calls)
     fftw         :   1840.24s CPU   1894.85s WALL (  692220 calls)
     interpolate  :      0.02s CPU      0.03s WALL (       1 calls)
     davcio       :      0.34s CPU     37.21s WALL (     936 calls)

     Parallel routines
     fft_scatt_xy :    220.26s CPU    225.22s WALL (  692234 calls)
     fft_scatt_yz :    248.22s CPU    256.91s WALL (  692234 calls)

     PAW routines
     PAW_pot      :      0.71s CPU      0.73s WALL (       1 calls)

     PWSCF        :  41m26.28s CPU  43m27.88s WALL


   This run was terminated on:  11:20:28  23Nov2020            

=------------------------------------------------------------------------------=
   JOB DONE.
=------------------------------------------------------------------------------=
